<?xml version="1.0"?>
<VTKFile type="StructuredGrid">
<StructuredGrid WholeExtent="0 30 0 10 0 0">
<Piece Extent="0 30 0 10 0 0">
<Points>
<DataArray type="Float32" NumberOfComponents="3"/>
0.000000 0.000000 0.000000 0.000100 0.000000 0.000000 0.000200 0.000000 0.000000 0.000300 0.000000 0.000000 0.000400 0.000000 0.000000 0.000500 0.000000 0.000000 0.000600 0.000000 0.000000 0.000700 0.000000 0.000000 0.000800 0.000000 0.000000 0.000900 0.000000 0.000000 0.001000 0.000000 0.000000 0.001100 0.000000 0.000000 0.001200 0.000000 0.000000 0.001300 0.000000 0.000000 0.001400 0.000000 0.000000 0.001500 0.000000 0.000000 0.001600 0.000000 0.000000 0.001700 0.000000 0.000000 0.001800 0.000000 0.000000 0.001900 0.000000 0.000000 0.002000 0.000000 0.000000 0.002100 0.000000 0.000000 0.002200 0.000000 0.000000 0.002300 0.000000 0.000000 0.002400 0.000000 0.000000 0.002500 0.000000 0.000000 0.002600 0.000000 0.000000 0.002700 0.000000 0.000000 0.002800 0.000000 0.000000 0.002900 0.000000 0.000000 0.003000 0.000000 0.000000 
0.000000 0.000025 0.000000 0.000100 0.000025 0.000000 0.000200 0.000025 0.000000 0.000300 0.000025 0.000000 0.000400 0.000025 0.000000 0.000500 0.000025 0.000000 0.000600 0.000025 0.000000 0.000700 0.000025 0.000000 0.000800 0.000025 0.000000 0.000900 0.000025 0.000000 0.001000 0.000025 0.000000 0.001100 0.000025 0.000000 0.001200 0.000025 0.000000 0.001300 0.000025 0.000000 0.001400 0.000025 0.000000 0.001500 0.000025 0.000000 0.001600 0.000025 0.000000 0.001700 0.000025 0.000000 0.001800 0.000025 0.000000 0.001900 0.000025 0.000000 0.002000 0.000025 0.000000 0.002100 0.000025 0.000000 0.002200 0.000025 0.000000 0.002300 0.000025 0.000000 0.002400 0.000025 0.000000 0.002500 0.000025 0.000000 0.002600 0.000025 0.000000 0.002700 0.000025 0.000000 0.002800 0.000025 0.000000 0.002900 0.000025 0.000000 0.003000 0.000025 0.000000 
0.000000 0.000050 0.000000 0.000100 0.000050 0.000000 0.000200 0.000050 0.000000 0.000300 0.000050 0.000000 0.000400 0.000050 0.000000 0.000500 0.000050 0.000000 0.000600 0.000050 0.000000 0.000700 0.000050 0.000000 0.000800 0.000050 0.000000 0.000900 0.000050 0.000000 0.001000 0.000050 0.000000 0.001100 0.000050 0.000000 0.001200 0.000050 0.000000 0.001300 0.000050 0.000000 0.001400 0.000050 0.000000 0.001500 0.000050 0.000000 0.001600 0.000050 0.000000 0.001700 0.000050 0.000000 0.001800 0.000050 0.000000 0.001900 0.000050 0.000000 0.002000 0.000050 0.000000 0.002100 0.000050 0.000000 0.002200 0.000050 0.000000 0.002300 0.000050 0.000000 0.002400 0.000050 0.000000 0.002500 0.000050 0.000000 0.002600 0.000050 0.000000 0.002700 0.000050 0.000000 0.002800 0.000050 0.000000 0.002900 0.000050 0.000000 0.003000 0.000050 0.000000 
0.000000 0.000075 0.000000 0.000100 0.000075 0.000000 0.000200 0.000075 0.000000 0.000300 0.000075 0.000000 0.000400 0.000075 0.000000 0.000500 0.000075 0.000000 0.000600 0.000075 0.000000 0.000700 0.000075 0.000000 0.000800 0.000075 0.000000 0.000900 0.000075 0.000000 0.001000 0.000075 0.000000 0.001100 0.000075 0.000000 0.001200 0.000075 0.000000 0.001300 0.000075 0.000000 0.001400 0.000075 0.000000 0.001500 0.000075 0.000000 0.001600 0.000075 0.000000 0.001700 0.000075 0.000000 0.001800 0.000075 0.000000 0.001900 0.000075 0.000000 0.002000 0.000075 0.000000 0.002100 0.000075 0.000000 0.002200 0.000075 0.000000 0.002300 0.000075 0.000000 0.002400 0.000075 0.000000 0.002500 0.000075 0.000000 0.002600 0.000075 0.000000 0.002700 0.000075 0.000000 0.002800 0.000075 0.000000 0.002900 0.000075 0.000000 0.003000 0.000075 0.000000 
0.000000 0.000100 0.000000 0.000100 0.000100 0.000000 0.000200 0.000100 0.000000 0.000300 0.000100 0.000000 0.000400 0.000100 0.000000 0.000500 0.000100 0.000000 0.000600 0.000100 0.000000 0.000700 0.000100 0.000000 0.000800 0.000100 0.000000 0.000900 0.000100 0.000000 0.001000 0.000100 0.000000 0.001100 0.000100 0.000000 0.001200 0.000100 0.000000 0.001300 0.000100 0.000000 0.001400 0.000100 0.000000 0.001500 0.000100 0.000000 0.001600 0.000100 0.000000 0.001700 0.000100 0.000000 0.001800 0.000100 0.000000 0.001900 0.000100 0.000000 0.002000 0.000100 0.000000 0.002100 0.000100 0.000000 0.002200 0.000100 0.000000 0.002300 0.000100 0.000000 0.002400 0.000100 0.000000 0.002500 0.000100 0.000000 0.002600 0.000100 0.000000 0.002700 0.000100 0.000000 0.002800 0.000100 0.000000 0.002900 0.000100 0.000000 0.003000 0.000100 0.000000 
0.000000 0.000125 0.000000 0.000100 0.000125 0.000000 0.000200 0.000125 0.000000 0.000300 0.000125 0.000000 0.000400 0.000125 0.000000 0.000500 0.000125 0.000000 0.000600 0.000125 0.000000 0.000700 0.000125 0.000000 0.000800 0.000125 0.000000 0.000900 0.000125 0.000000 0.001000 0.000125 0.000000 0.001100 0.000125 0.000000 0.001200 0.000125 0.000000 0.001300 0.000125 0.000000 0.001400 0.000125 0.000000 0.001500 0.000125 0.000000 0.001600 0.000125 0.000000 0.001700 0.000125 0.000000 0.001800 0.000125 0.000000 0.001900 0.000125 0.000000 0.002000 0.000125 0.000000 0.002100 0.000125 0.000000 0.002200 0.000125 0.000000 0.002300 0.000125 0.000000 0.002400 0.000125 0.000000 0.002500 0.000125 0.000000 0.002600 0.000125 0.000000 0.002700 0.000125 0.000000 0.002800 0.000125 0.000000 0.002900 0.000125 0.000000 0.003000 0.000125 0.000000 
0.000000 0.000150 0.000000 0.000100 0.000150 0.000000 0.000200 0.000150 0.000000 0.000300 0.000150 0.000000 0.000400 0.000150 0.000000 0.000500 0.000150 0.000000 0.000600 0.000150 0.000000 0.000700 0.000150 0.000000 0.000800 0.000150 0.000000 0.000900 0.000150 0.000000 0.001000 0.000150 0.000000 0.001100 0.000150 0.000000 0.001200 0.000150 0.000000 0.001300 0.000150 0.000000 0.001400 0.000150 0.000000 0.001500 0.000150 0.000000 0.001600 0.000150 0.000000 0.001700 0.000150 0.000000 0.001800 0.000150 0.000000 0.001900 0.000150 0.000000 0.002000 0.000150 0.000000 0.002100 0.000150 0.000000 0.002200 0.000150 0.000000 0.002300 0.000150 0.000000 0.002400 0.000150 0.000000 0.002500 0.000150 0.000000 0.002600 0.000150 0.000000 0.002700 0.000150 0.000000 0.002800 0.000150 0.000000 0.002900 0.000150 0.000000 0.003000 0.000150 0.000000 
0.000000 0.000175 0.000000 0.000100 0.000175 0.000000 0.000200 0.000175 0.000000 0.000300 0.000175 0.000000 0.000400 0.000175 0.000000 0.000500 0.000175 0.000000 0.000600 0.000175 0.000000 0.000700 0.000175 0.000000 0.000800 0.000175 0.000000 0.000900 0.000175 0.000000 0.001000 0.000175 0.000000 0.001100 0.000175 0.000000 0.001200 0.000175 0.000000 0.001300 0.000175 0.000000 0.001400 0.000175 0.000000 0.001500 0.000175 0.000000 0.001600 0.000175 0.000000 0.001700 0.000175 0.000000 0.001800 0.000175 0.000000 0.001900 0.000175 0.000000 0.002000 0.000175 0.000000 0.002100 0.000175 0.000000 0.002200 0.000175 0.000000 0.002300 0.000175 0.000000 0.002400 0.000175 0.000000 0.002500 0.000175 0.000000 0.002600 0.000175 0.000000 0.002700 0.000175 0.000000 0.002800 0.000175 0.000000 0.002900 0.000175 0.000000 0.003000 0.000175 0.000000 
0.000000 0.000200 0.000000 0.000100 0.000200 0.000000 0.000200 0.000200 0.000000 0.000300 0.000200 0.000000 0.000400 0.000200 0.000000 0.000500 0.000200 0.000000 0.000600 0.000200 0.000000 0.000700 0.000200 0.000000 0.000800 0.000200 0.000000 0.000900 0.000200 0.000000 0.001000 0.000200 0.000000 0.001100 0.000200 0.000000 0.001200 0.000200 0.000000 0.001300 0.000200 0.000000 0.001400 0.000200 0.000000 0.001500 0.000200 0.000000 0.001600 0.000200 0.000000 0.001700 0.000200 0.000000 0.001800 0.000200 0.000000 0.001900 0.000200 0.000000 0.002000 0.000200 0.000000 0.002100 0.000200 0.000000 0.002200 0.000200 0.000000 0.002300 0.000200 0.000000 0.002400 0.000200 0.000000 0.002500 0.000200 0.000000 0.002600 0.000200 0.000000 0.002700 0.000200 0.000000 0.002800 0.000200 0.000000 0.002900 0.000200 0.000000 0.003000 0.000200 0.000000 
0.000000 0.000225 0.000000 0.000100 0.000225 0.000000 0.000200 0.000225 0.000000 0.000300 0.000225 0.000000 0.000400 0.000225 0.000000 0.000500 0.000225 0.000000 0.000600 0.000225 0.000000 0.000700 0.000225 0.000000 0.000800 0.000225 0.000000 0.000900 0.000225 0.000000 0.001000 0.000225 0.000000 0.001100 0.000225 0.000000 0.001200 0.000225 0.000000 0.001300 0.000225 0.000000 0.001400 0.000225 0.000000 0.001500 0.000225 0.000000 0.001600 0.000225 0.000000 0.001700 0.000225 0.000000 0.001800 0.000225 0.000000 0.001900 0.000225 0.000000 0.002000 0.000225 0.000000 0.002100 0.000225 0.000000 0.002200 0.000225 0.000000 0.002300 0.000225 0.000000 0.002400 0.000225 0.000000 0.002500 0.000225 0.000000 0.002600 0.000225 0.000000 0.002700 0.000225 0.000000 0.002800 0.000225 0.000000 0.002900 0.000225 0.000000 0.003000 0.000225 0.000000 
0.000000 0.000250 0.000000 0.000100 0.000250 0.000000 0.000200 0.000250 0.000000 0.000300 0.000250 0.000000 0.000400 0.000250 0.000000 0.000500 0.000250 0.000000 0.000600 0.000250 0.000000 0.000700 0.000250 0.000000 0.000800 0.000250 0.000000 0.000900 0.000250 0.000000 0.001000 0.000250 0.000000 0.001100 0.000250 0.000000 0.001200 0.000250 0.000000 0.001300 0.000250 0.000000 0.001400 0.000250 0.000000 0.001500 0.000250 0.000000 0.001600 0.000250 0.000000 0.001700 0.000250 0.000000 0.001800 0.000250 0.000000 0.001900 0.000250 0.000000 0.002000 0.000250 0.000000 0.002100 0.000250 0.000000 0.002200 0.000250 0.000000 0.002300 0.000250 0.000000 0.002400 0.000250 0.000000 0.002500 0.000250 0.000000 0.002600 0.000250 0.000000 0.002700 0.000250 0.000000 0.002800 0.000250 0.000000 0.002900 0.000250 0.000000 0.003000 0.000250 0.000000 
</Points>
<CellData Scalars="Temperature, U, V">
<DataArray type="Float32" Name="Temp, K"/>
42.701138 45.043671 45.410950 45.471004 45.480843 45.482090 45.482258 45.482273 45.482277 45.482277 45.482273 45.482273 45.482277 45.482273 45.482277 45.482273 45.482277 45.482277 45.482273 45.482277 45.482277 45.482277 45.482277 45.482277 45.482277 45.482277 45.482277 45.482277 45.482277 45.482277 
37.088867 40.380222 40.989853 41.101501 41.118317 41.120834 41.121105 41.121143 41.121143 41.121143 41.121143 41.121143 41.121140 41.121143 41.121140 41.121143 41.121143 41.121143 41.121143 41.121143 41.121143 41.121143 41.121143 41.121143 41.121143 41.121143 41.121143 41.121143 41.121143 41.121143 
32.775150 36.161751 36.904266 37.039497 37.062752 37.065731 37.066132 37.066170 37.066177 37.066177 37.066174 37.066174 37.066177 37.066174 37.066177 37.066174 37.066177 37.066177 37.066174 37.066177 37.066177 37.066177 37.066177 37.066177 37.066177 37.066177 37.066177 37.066177 37.066177 37.066177 
29.405567 32.511574 33.245522 33.396107 33.419697 33.423336 33.423725 33.423775 33.423775 33.423775 33.423775 33.423775 33.423775 33.423775 33.423775 33.423775 33.423775 33.423775 33.423775 33.423775 33.423775 33.423775 33.423775 33.423775 33.423775 33.423775 33.423775 33.423775 33.423775 33.423775 
26.855829 29.432962 30.121397 30.258116 30.282921 30.286131 30.286573 30.286613 30.286615 30.286619 30.286615 30.286615 30.286615 30.286615 30.286615 30.286615 30.286615 30.286615 30.286615 30.286615 30.286619 30.286615 30.286615 30.286619 30.286619 30.286619 30.286615 30.286619 30.286615 30.286615 
24.889486 26.967386 27.534302 27.661303 27.681824 27.685076 27.685419 27.685463 27.685465 27.685465 27.685465 27.685465 27.685463 27.685465 27.685463 27.685465 27.685465 27.685465 27.685465 27.685465 27.685465 27.685465 27.685465 27.685465 27.685465 27.685465 27.685465 27.685465 27.685465 27.685465 
23.483250 25.050041 25.523945 25.623924 25.642788 25.645245 25.645584 25.645613 25.645617 25.645617 25.645617 25.645617 25.645617 25.645617 25.645617 25.645617 25.645617 25.645617 25.645617 25.645617 25.645617 25.645617 25.645617 25.645617 25.645617 25.645617 25.645617 25.645617 25.645617 25.645617 
22.470320 23.679010 24.040901 24.126490 24.140715 24.142969 24.143209 24.143238 24.143240 24.143240 24.143240 24.143240 24.143238 24.143240 24.143238 24.143240 24.143240 24.143240 24.143240 24.143240 24.143240 24.143240 24.143240 24.143240 24.143240 24.143240 24.143240 24.143240 24.143240 24.143240 
21.854345 22.783205 23.084023 23.151005 23.163614 23.165306 23.165529 23.165548 23.165550 23.165550 23.165550 23.165550 23.165550 23.165550 23.165550 23.165550 23.165550 23.165550 23.165550 23.165550 23.165550 23.165550 23.165550 23.165550 23.165550 23.165550 23.165550 23.165550 23.165550 23.165550 
21.544744 22.350218 22.608479 22.669369 22.680094 22.681679 22.681860 22.681879 22.681879 22.681879 22.681879 22.681879 22.681879 22.681879 22.681879 22.681879 22.681879 22.681879 22.681879 22.681879 22.681879 22.681879 22.681879 22.681879 22.681879 22.681879 22.681879 22.681879 22.681879 22.681879 
<DataArray type="Float32" Name="Vitesse u, m/s"/>
0.050000 0.050000 0.050000 0.050000 0.050000 0.050000 0.050000 0.050000 0.050000 0.050000 0.050000 0.050000 0.050000 0.050000 0.050000 0.050000 0.050000 0.050000 0.050000 0.050000 0.050000 0.050000 0.050000 0.050000 0.050000 0.050000 0.050000 0.050000 0.050000 0.050000 
0.050000 0.050000 0.050000 0.050000 0.050000 0.050000 0.050000 0.050000 0.050000 0.050000 0.050000 0.050000 0.050000 0.050000 0.050000 0.050000 0.050000 0.050000 0.050000 0.050000 0.050000 0.050000 0.050000 0.050000 0.050000 0.050000 0.050000 0.050000 0.050000 0.050000 
0.050000 0.050000 0.050000 0.050000 0.050000 0.050000 0.050000 0.050000 0.050000 0.050000 0.050000 0.050000 0.050000 0.050000 0.050000 0.050000 0.050000 0.050000 0.050000 0.050000 0.050000 0.050000 0.050000 0.050000 0.050000 0.050000 0.050000 0.050000 0.050000 0.050000 
0.050000 0.050000 0.050000 0.050000 0.050000 0.050000 0.050000 0.050000 0.050000 0.050000 0.050000 0.050000 0.050000 0.050000 0.050000 0.050000 0.050000 0.050000 0.050000 0.050000 0.050000 0.050000 0.050000 0.050000 0.050000 0.050000 0.050000 0.050000 0.050000 0.050000 
0.050000 0.050000 0.050000 0.050000 0.050000 0.050000 0.050000 0.050000 0.050000 0.050000 0.050000 0.050000 0.050000 0.050000 0.050000 0.050000 0.050000 0.050000 0.050000 0.050000 0.050000 0.050000 0.050000 0.050000 0.050000 0.050000 0.050000 0.050000 0.050000 0.050000 
0.050000 0.050000 0.050000 0.050000 0.050000 0.050000 0.050000 0.050000 0.050000 0.050000 0.050000 0.050000 0.050000 0.050000 0.050000 0.050000 0.050000 0.050000 0.050000 0.050000 0.050000 0.050000 0.050000 0.050000 0.050000 0.050000 0.050000 0.050000 0.050000 0.050000 
0.050000 0.050000 0.050000 0.050000 0.050000 0.050000 0.050000 0.050000 0.050000 0.050000 0.050000 0.050000 0.050000 0.050000 0.050000 0.050000 0.050000 0.050000 0.050000 0.050000 0.050000 0.050000 0.050000 0.050000 0.050000 0.050000 0.050000 0.050000 0.050000 0.050000 
0.050000 0.050000 0.050000 0.050000 0.050000 0.050000 0.050000 0.050000 0.050000 0.050000 0.050000 0.050000 0.050000 0.050000 0.050000 0.050000 0.050000 0.050000 0.050000 0.050000 0.050000 0.050000 0.050000 0.050000 0.050000 0.050000 0.050000 0.050000 0.050000 0.050000 
0.050000 0.050000 0.050000 0.050000 0.050000 0.050000 0.050000 0.050000 0.050000 0.050000 0.050000 0.050000 0.050000 0.050000 0.050000 0.050000 0.050000 0.050000 0.050000 0.050000 0.050000 0.050000 0.050000 0.050000 0.050000 0.050000 0.050000 0.050000 0.050000 0.050000 
0.050000 0.050000 0.050000 0.050000 0.050000 0.050000 0.050000 0.050000 0.050000 0.050000 0.050000 0.050000 0.050000 0.050000 0.050000 0.050000 0.050000 0.050000 0.050000 0.050000 0.050000 0.050000 0.050000 0.050000 0.050000 0.050000 0.050000 0.050000 0.050000 0.050000 
<DataArray type="Float32" Name="Vitesse v, m/s"/>
0.000000 0.000000 0.000000 0.000000 0.000000 0.000000 0.000000 0.000000 0.000000 0.000000 0.000000 0.000000 0.000000 0.000000 0.000000 0.000000 0.000000 0.000000 0.000000 0.000000 0.000000 0.000000 0.000000 0.000000 0.000000 0.000000 0.000000 0.000000 0.000000 0.000000 
0.000000 0.000000 0.000000 0.000000 0.000000 0.000000 0.000000 0.000000 0.000000 0.000000 0.000000 0.000000 0.000000 0.000000 0.000000 0.000000 0.000000 0.000000 0.000000 0.000000 0.000000 0.000000 0.000000 0.000000 0.000000 0.000000 0.000000 0.000000 0.000000 0.000000 
0.000000 0.000000 0.000000 0.000000 0.000000 0.000000 0.000000 0.000000 0.000000 0.000000 0.000000 0.000000 0.000000 0.000000 0.000000 0.000000 0.000000 0.000000 0.000000 0.000000 0.000000 0.000000 0.000000 0.000000 0.000000 0.000000 0.000000 0.000000 0.000000 0.000000 
0.000000 0.000000 0.000000 0.000000 0.000000 0.000000 0.000000 0.000000 0.000000 0.000000 0.000000 0.000000 0.000000 0.000000 0.000000 0.000000 0.000000 0.000000 0.000000 0.000000 0.000000 0.000000 0.000000 0.000000 0.000000 0.000000 0.000000 0.000000 0.000000 0.000000 
0.000000 0.000000 0.000000 0.000000 0.000000 0.000000 0.000000 0.000000 0.000000 0.000000 0.000000 0.000000 0.000000 0.000000 0.000000 0.000000 0.000000 0.000000 0.000000 0.000000 0.000000 0.000000 0.000000 0.000000 0.000000 0.000000 0.000000 0.000000 0.000000 0.000000 
0.000000 0.000000 0.000000 0.000000 0.000000 0.000000 0.000000 0.000000 0.000000 0.000000 0.000000 0.000000 0.000000 0.000000 0.000000 0.000000 0.000000 0.000000 0.000000 0.000000 0.000000 0.000000 0.000000 0.000000 0.000000 0.000000 0.000000 0.000000 0.000000 0.000000 
0.000000 0.000000 0.000000 0.000000 0.000000 0.000000 0.000000 0.000000 0.000000 0.000000 0.000000 0.000000 0.000000 0.000000 0.000000 0.000000 0.000000 0.000000 0.000000 0.000000 0.000000 0.000000 0.000000 0.000000 0.000000 0.000000 0.000000 0.000000 0.000000 0.000000 
0.000000 0.000000 0.000000 0.000000 0.000000 0.000000 0.000000 0.000000 0.000000 0.000000 0.000000 0.000000 0.000000 0.000000 0.000000 0.000000 0.000000 0.000000 0.000000 0.000000 0.000000 0.000000 0.000000 0.000000 0.000000 0.000000 0.000000 0.000000 0.000000 0.000000 
0.000000 0.000000 0.000000 0.000000 0.000000 0.000000 0.000000 0.000000 0.000000 0.000000 0.000000 0.000000 0.000000 0.000000 0.000000 0.000000 0.000000 0.000000 0.000000 0.000000 0.000000 0.000000 0.000000 0.000000 0.000000 0.000000 0.000000 0.000000 0.000000 0.000000 
0.000000 0.000000 0.000000 0.000000 0.000000 0.000000 0.000000 0.000000 0.000000 0.000000 0.000000 0.000000 0.000000 0.000000 0.000000 0.000000 0.000000 0.000000 0.000000 0.000000 0.000000 0.000000 0.000000 0.000000 0.000000 0.000000 0.000000 0.000000 0.000000 0.000000 
</CellData>
</Piece>
</StructuredGrid>
</VTKFile>
