<?xml version="1.0"?>
<VTKFile type="StructuredGrid">
<StructuredGrid WholeExtent="0 30 0 10 0 0">
<Piece Extent="0 30 0 10 0 0">
<Points>
<DataArray type="Float32" NumberOfComponents="3"/>
0.000000 0.000000 0.000000 0.000100 0.000000 0.000000 0.000200 0.000000 0.000000 0.000300 0.000000 0.000000 0.000400 0.000000 0.000000 0.000500 0.000000 0.000000 0.000600 0.000000 0.000000 0.000700 0.000000 0.000000 0.000800 0.000000 0.000000 0.000900 0.000000 0.000000 0.001000 0.000000 0.000000 0.001100 0.000000 0.000000 0.001200 0.000000 0.000000 0.001300 0.000000 0.000000 0.001400 0.000000 0.000000 0.001500 0.000000 0.000000 0.001600 0.000000 0.000000 0.001700 0.000000 0.000000 0.001800 0.000000 0.000000 0.001900 0.000000 0.000000 0.002000 0.000000 0.000000 0.002100 0.000000 0.000000 0.002200 0.000000 0.000000 0.002300 0.000000 0.000000 0.002400 0.000000 0.000000 0.002500 0.000000 0.000000 0.002600 0.000000 0.000000 0.002700 0.000000 0.000000 0.002800 0.000000 0.000000 0.002900 0.000000 0.000000 0.003000 0.000000 0.000000 
0.000000 0.000025 0.000000 0.000100 0.000025 0.000000 0.000200 0.000025 0.000000 0.000300 0.000025 0.000000 0.000400 0.000025 0.000000 0.000500 0.000025 0.000000 0.000600 0.000025 0.000000 0.000700 0.000025 0.000000 0.000800 0.000025 0.000000 0.000900 0.000025 0.000000 0.001000 0.000025 0.000000 0.001100 0.000025 0.000000 0.001200 0.000025 0.000000 0.001300 0.000025 0.000000 0.001400 0.000025 0.000000 0.001500 0.000025 0.000000 0.001600 0.000025 0.000000 0.001700 0.000025 0.000000 0.001800 0.000025 0.000000 0.001900 0.000025 0.000000 0.002000 0.000025 0.000000 0.002100 0.000025 0.000000 0.002200 0.000025 0.000000 0.002300 0.000025 0.000000 0.002400 0.000025 0.000000 0.002500 0.000025 0.000000 0.002600 0.000025 0.000000 0.002700 0.000025 0.000000 0.002800 0.000025 0.000000 0.002900 0.000025 0.000000 0.003000 0.000025 0.000000 
0.000000 0.000050 0.000000 0.000100 0.000050 0.000000 0.000200 0.000050 0.000000 0.000300 0.000050 0.000000 0.000400 0.000050 0.000000 0.000500 0.000050 0.000000 0.000600 0.000050 0.000000 0.000700 0.000050 0.000000 0.000800 0.000050 0.000000 0.000900 0.000050 0.000000 0.001000 0.000050 0.000000 0.001100 0.000050 0.000000 0.001200 0.000050 0.000000 0.001300 0.000050 0.000000 0.001400 0.000050 0.000000 0.001500 0.000050 0.000000 0.001600 0.000050 0.000000 0.001700 0.000050 0.000000 0.001800 0.000050 0.000000 0.001900 0.000050 0.000000 0.002000 0.000050 0.000000 0.002100 0.000050 0.000000 0.002200 0.000050 0.000000 0.002300 0.000050 0.000000 0.002400 0.000050 0.000000 0.002500 0.000050 0.000000 0.002600 0.000050 0.000000 0.002700 0.000050 0.000000 0.002800 0.000050 0.000000 0.002900 0.000050 0.000000 0.003000 0.000050 0.000000 
0.000000 0.000075 0.000000 0.000100 0.000075 0.000000 0.000200 0.000075 0.000000 0.000300 0.000075 0.000000 0.000400 0.000075 0.000000 0.000500 0.000075 0.000000 0.000600 0.000075 0.000000 0.000700 0.000075 0.000000 0.000800 0.000075 0.000000 0.000900 0.000075 0.000000 0.001000 0.000075 0.000000 0.001100 0.000075 0.000000 0.001200 0.000075 0.000000 0.001300 0.000075 0.000000 0.001400 0.000075 0.000000 0.001500 0.000075 0.000000 0.001600 0.000075 0.000000 0.001700 0.000075 0.000000 0.001800 0.000075 0.000000 0.001900 0.000075 0.000000 0.002000 0.000075 0.000000 0.002100 0.000075 0.000000 0.002200 0.000075 0.000000 0.002300 0.000075 0.000000 0.002400 0.000075 0.000000 0.002500 0.000075 0.000000 0.002600 0.000075 0.000000 0.002700 0.000075 0.000000 0.002800 0.000075 0.000000 0.002900 0.000075 0.000000 0.003000 0.000075 0.000000 
0.000000 0.000100 0.000000 0.000100 0.000100 0.000000 0.000200 0.000100 0.000000 0.000300 0.000100 0.000000 0.000400 0.000100 0.000000 0.000500 0.000100 0.000000 0.000600 0.000100 0.000000 0.000700 0.000100 0.000000 0.000800 0.000100 0.000000 0.000900 0.000100 0.000000 0.001000 0.000100 0.000000 0.001100 0.000100 0.000000 0.001200 0.000100 0.000000 0.001300 0.000100 0.000000 0.001400 0.000100 0.000000 0.001500 0.000100 0.000000 0.001600 0.000100 0.000000 0.001700 0.000100 0.000000 0.001800 0.000100 0.000000 0.001900 0.000100 0.000000 0.002000 0.000100 0.000000 0.002100 0.000100 0.000000 0.002200 0.000100 0.000000 0.002300 0.000100 0.000000 0.002400 0.000100 0.000000 0.002500 0.000100 0.000000 0.002600 0.000100 0.000000 0.002700 0.000100 0.000000 0.002800 0.000100 0.000000 0.002900 0.000100 0.000000 0.003000 0.000100 0.000000 
0.000000 0.000125 0.000000 0.000100 0.000125 0.000000 0.000200 0.000125 0.000000 0.000300 0.000125 0.000000 0.000400 0.000125 0.000000 0.000500 0.000125 0.000000 0.000600 0.000125 0.000000 0.000700 0.000125 0.000000 0.000800 0.000125 0.000000 0.000900 0.000125 0.000000 0.001000 0.000125 0.000000 0.001100 0.000125 0.000000 0.001200 0.000125 0.000000 0.001300 0.000125 0.000000 0.001400 0.000125 0.000000 0.001500 0.000125 0.000000 0.001600 0.000125 0.000000 0.001700 0.000125 0.000000 0.001800 0.000125 0.000000 0.001900 0.000125 0.000000 0.002000 0.000125 0.000000 0.002100 0.000125 0.000000 0.002200 0.000125 0.000000 0.002300 0.000125 0.000000 0.002400 0.000125 0.000000 0.002500 0.000125 0.000000 0.002600 0.000125 0.000000 0.002700 0.000125 0.000000 0.002800 0.000125 0.000000 0.002900 0.000125 0.000000 0.003000 0.000125 0.000000 
0.000000 0.000150 0.000000 0.000100 0.000150 0.000000 0.000200 0.000150 0.000000 0.000300 0.000150 0.000000 0.000400 0.000150 0.000000 0.000500 0.000150 0.000000 0.000600 0.000150 0.000000 0.000700 0.000150 0.000000 0.000800 0.000150 0.000000 0.000900 0.000150 0.000000 0.001000 0.000150 0.000000 0.001100 0.000150 0.000000 0.001200 0.000150 0.000000 0.001300 0.000150 0.000000 0.001400 0.000150 0.000000 0.001500 0.000150 0.000000 0.001600 0.000150 0.000000 0.001700 0.000150 0.000000 0.001800 0.000150 0.000000 0.001900 0.000150 0.000000 0.002000 0.000150 0.000000 0.002100 0.000150 0.000000 0.002200 0.000150 0.000000 0.002300 0.000150 0.000000 0.002400 0.000150 0.000000 0.002500 0.000150 0.000000 0.002600 0.000150 0.000000 0.002700 0.000150 0.000000 0.002800 0.000150 0.000000 0.002900 0.000150 0.000000 0.003000 0.000150 0.000000 
0.000000 0.000175 0.000000 0.000100 0.000175 0.000000 0.000200 0.000175 0.000000 0.000300 0.000175 0.000000 0.000400 0.000175 0.000000 0.000500 0.000175 0.000000 0.000600 0.000175 0.000000 0.000700 0.000175 0.000000 0.000800 0.000175 0.000000 0.000900 0.000175 0.000000 0.001000 0.000175 0.000000 0.001100 0.000175 0.000000 0.001200 0.000175 0.000000 0.001300 0.000175 0.000000 0.001400 0.000175 0.000000 0.001500 0.000175 0.000000 0.001600 0.000175 0.000000 0.001700 0.000175 0.000000 0.001800 0.000175 0.000000 0.001900 0.000175 0.000000 0.002000 0.000175 0.000000 0.002100 0.000175 0.000000 0.002200 0.000175 0.000000 0.002300 0.000175 0.000000 0.002400 0.000175 0.000000 0.002500 0.000175 0.000000 0.002600 0.000175 0.000000 0.002700 0.000175 0.000000 0.002800 0.000175 0.000000 0.002900 0.000175 0.000000 0.003000 0.000175 0.000000 
0.000000 0.000200 0.000000 0.000100 0.000200 0.000000 0.000200 0.000200 0.000000 0.000300 0.000200 0.000000 0.000400 0.000200 0.000000 0.000500 0.000200 0.000000 0.000600 0.000200 0.000000 0.000700 0.000200 0.000000 0.000800 0.000200 0.000000 0.000900 0.000200 0.000000 0.001000 0.000200 0.000000 0.001100 0.000200 0.000000 0.001200 0.000200 0.000000 0.001300 0.000200 0.000000 0.001400 0.000200 0.000000 0.001500 0.000200 0.000000 0.001600 0.000200 0.000000 0.001700 0.000200 0.000000 0.001800 0.000200 0.000000 0.001900 0.000200 0.000000 0.002000 0.000200 0.000000 0.002100 0.000200 0.000000 0.002200 0.000200 0.000000 0.002300 0.000200 0.000000 0.002400 0.000200 0.000000 0.002500 0.000200 0.000000 0.002600 0.000200 0.000000 0.002700 0.000200 0.000000 0.002800 0.000200 0.000000 0.002900 0.000200 0.000000 0.003000 0.000200 0.000000 
0.000000 0.000225 0.000000 0.000100 0.000225 0.000000 0.000200 0.000225 0.000000 0.000300 0.000225 0.000000 0.000400 0.000225 0.000000 0.000500 0.000225 0.000000 0.000600 0.000225 0.000000 0.000700 0.000225 0.000000 0.000800 0.000225 0.000000 0.000900 0.000225 0.000000 0.001000 0.000225 0.000000 0.001100 0.000225 0.000000 0.001200 0.000225 0.000000 0.001300 0.000225 0.000000 0.001400 0.000225 0.000000 0.001500 0.000225 0.000000 0.001600 0.000225 0.000000 0.001700 0.000225 0.000000 0.001800 0.000225 0.000000 0.001900 0.000225 0.000000 0.002000 0.000225 0.000000 0.002100 0.000225 0.000000 0.002200 0.000225 0.000000 0.002300 0.000225 0.000000 0.002400 0.000225 0.000000 0.002500 0.000225 0.000000 0.002600 0.000225 0.000000 0.002700 0.000225 0.000000 0.002800 0.000225 0.000000 0.002900 0.000225 0.000000 0.003000 0.000225 0.000000 
0.000000 0.000250 0.000000 0.000100 0.000250 0.000000 0.000200 0.000250 0.000000 0.000300 0.000250 0.000000 0.000400 0.000250 0.000000 0.000500 0.000250 0.000000 0.000600 0.000250 0.000000 0.000700 0.000250 0.000000 0.000800 0.000250 0.000000 0.000900 0.000250 0.000000 0.001000 0.000250 0.000000 0.001100 0.000250 0.000000 0.001200 0.000250 0.000000 0.001300 0.000250 0.000000 0.001400 0.000250 0.000000 0.001500 0.000250 0.000000 0.001600 0.000250 0.000000 0.001700 0.000250 0.000000 0.001800 0.000250 0.000000 0.001900 0.000250 0.000000 0.002000 0.000250 0.000000 0.002100 0.000250 0.000000 0.002200 0.000250 0.000000 0.002300 0.000250 0.000000 0.002400 0.000250 0.000000 0.002500 0.000250 0.000000 0.002600 0.000250 0.000000 0.002700 0.000250 0.000000 0.002800 0.000250 0.000000 0.002900 0.000250 0.000000 0.003000 0.000250 0.000000 
</Points>
<CellData Scalars="Temperature, U, V">
<DataArray type="Float32" Name="Temp, K"/>
42.879776 45.353977 45.782326 45.863804 45.879326 45.881744 45.882126 45.882172 45.882175 45.882175 45.882175 45.882175 45.882175 45.882175 45.882175 45.882175 45.882175 45.882175 45.882175 45.882175 45.882175 45.882175 45.882175 45.882175 45.882175 45.882175 45.882175 45.882175 45.882175 45.882175 
37.437202 40.973309 41.702457 41.854614 41.882114 41.886951 41.887608 41.887699 41.887707 41.887707 41.887707 41.887707 41.887707 41.887707 41.887707 41.887707 41.887707 41.887707 41.887707 41.887707 41.887707 41.887707 41.887707 41.887707 41.887707 41.887707 41.887707 41.887707 41.887707 41.887707 
33.253242 36.990997 37.896072 38.087978 38.126217 38.132271 38.133236 38.133347 38.133362 38.133362 38.133362 38.133362 38.133362 38.133362 38.133362 38.133362 38.133362 38.133362 38.133362 38.133362 38.133362 38.133362 38.133362 38.133362 38.133362 38.133362 38.133362 38.133362 38.133362 38.133362 
29.993868 33.512474 34.446316 34.664383 34.705601 34.713039 34.714046 34.714191 34.714207 34.714207 34.714207 34.714207 34.714207 34.714207 34.714207 34.714207 34.714207 34.714207 34.714207 34.714207 34.714207 34.714207 34.714207 34.714207 34.714207 34.714207 34.714207 34.714207 34.714207 34.714207 
27.497452 30.542370 31.446508 31.657507 31.701817 31.708973 31.710129 31.710262 31.710279 31.710279 31.710279 31.710279 31.710279 31.710279 31.710279 31.710279 31.710279 31.710279 31.710279 31.710279 31.710279 31.710279 31.710279 31.710279 31.710279 31.710279 31.710279 31.710279 31.710279 31.710279 
25.569916 28.123812 28.918188 29.121420 29.161549 29.168976 29.169991 29.170135 29.170149 29.170151 29.170151 29.170151 29.170149 29.170151 29.170149 29.170151 29.170151 29.170151 29.170151 29.170151 29.170151 29.170151 29.170151 29.170151 29.170151 29.170151 29.170151 29.170151 29.170151 29.170151 
24.157944 26.210899 26.907820 27.083261 27.121677 27.128031 27.129059 27.129177 27.129192 27.129194 27.129194 27.129194 27.129194 27.129194 27.129194 27.129194 27.129194 27.129194 27.129194 27.129194 27.129194 27.129194 27.129194 27.129194 27.129194 27.129194 27.129194 27.129194 27.129194 27.129194 
23.140471 24.817366 25.398899 25.557381 25.590052 25.596142 25.596991 25.597111 25.597122 25.597122 25.597122 25.597122 25.597122 25.597122 25.597122 25.597122 25.597122 25.597122 25.597122 25.597122 25.597122 25.597122 25.597122 25.597122 25.597122 25.597122 25.597122 25.597122 25.597122 25.597122 
22.503883 23.893991 24.405891 24.543047 24.573513 24.578743 24.579565 24.579664 24.579676 24.579676 24.579676 24.579676 24.579676 24.579676 24.579676 24.579676 24.579676 24.579676 24.579676 24.579676 24.579676 24.579676 24.579676 24.579676 24.579676 24.579676 24.579676 24.579676 24.579676 24.579676 
22.186640 23.442513 23.908432 24.037844 24.065804 24.070862 24.071606 24.071703 24.071714 24.071714 24.071714 24.071714 24.071714 24.071714 24.071714 24.071714 24.071714 24.071714 24.071714 24.071714 24.071714 24.071714 24.071714 24.071714 24.071714 24.071714 24.071714 24.071714 24.071714 24.071714 
<DataArray type="Float32" Name="Vitesse u, m/s"/>
0.050000 0.050000 0.050000 0.050000 0.050000 0.050000 0.050000 0.050000 0.050000 0.050000 0.050000 0.050000 0.050000 0.050000 0.050000 0.050000 0.050000 0.050000 0.050000 0.050000 0.050000 0.050000 0.050000 0.050000 0.050000 0.050000 0.050000 0.050000 0.050000 0.050000 
0.050000 0.050000 0.050000 0.050000 0.050000 0.050000 0.050000 0.050000 0.050000 0.050000 0.050000 0.050000 0.050000 0.050000 0.050000 0.050000 0.050000 0.050000 0.050000 0.050000 0.050000 0.050000 0.050000 0.050000 0.050000 0.050000 0.050000 0.050000 0.050000 0.050000 
0.050000 0.050000 0.050000 0.050000 0.050000 0.050000 0.050000 0.050000 0.050000 0.050000 0.050000 0.050000 0.050000 0.050000 0.050000 0.050000 0.050000 0.050000 0.050000 0.050000 0.050000 0.050000 0.050000 0.050000 0.050000 0.050000 0.050000 0.050000 0.050000 0.050000 
0.050000 0.050000 0.050000 0.050000 0.050000 0.050000 0.050000 0.050000 0.050000 0.050000 0.050000 0.050000 0.050000 0.050000 0.050000 0.050000 0.050000 0.050000 0.050000 0.050000 0.050000 0.050000 0.050000 0.050000 0.050000 0.050000 0.050000 0.050000 0.050000 0.050000 
0.050000 0.050000 0.050000 0.050000 0.050000 0.050000 0.050000 0.050000 0.050000 0.050000 0.050000 0.050000 0.050000 0.050000 0.050000 0.050000 0.050000 0.050000 0.050000 0.050000 0.050000 0.050000 0.050000 0.050000 0.050000 0.050000 0.050000 0.050000 0.050000 0.050000 
0.050000 0.050000 0.050000 0.050000 0.050000 0.050000 0.050000 0.050000 0.050000 0.050000 0.050000 0.050000 0.050000 0.050000 0.050000 0.050000 0.050000 0.050000 0.050000 0.050000 0.050000 0.050000 0.050000 0.050000 0.050000 0.050000 0.050000 0.050000 0.050000 0.050000 
0.050000 0.050000 0.050000 0.050000 0.050000 0.050000 0.050000 0.050000 0.050000 0.050000 0.050000 0.050000 0.050000 0.050000 0.050000 0.050000 0.050000 0.050000 0.050000 0.050000 0.050000 0.050000 0.050000 0.050000 0.050000 0.050000 0.050000 0.050000 0.050000 0.050000 
0.050000 0.050000 0.050000 0.050000 0.050000 0.050000 0.050000 0.050000 0.050000 0.050000 0.050000 0.050000 0.050000 0.050000 0.050000 0.050000 0.050000 0.050000 0.050000 0.050000 0.050000 0.050000 0.050000 0.050000 0.050000 0.050000 0.050000 0.050000 0.050000 0.050000 
0.050000 0.050000 0.050000 0.050000 0.050000 0.050000 0.050000 0.050000 0.050000 0.050000 0.050000 0.050000 0.050000 0.050000 0.050000 0.050000 0.050000 0.050000 0.050000 0.050000 0.050000 0.050000 0.050000 0.050000 0.050000 0.050000 0.050000 0.050000 0.050000 0.050000 
0.050000 0.050000 0.050000 0.050000 0.050000 0.050000 0.050000 0.050000 0.050000 0.050000 0.050000 0.050000 0.050000 0.050000 0.050000 0.050000 0.050000 0.050000 0.050000 0.050000 0.050000 0.050000 0.050000 0.050000 0.050000 0.050000 0.050000 0.050000 0.050000 0.050000 
<DataArray type="Float32" Name="Vitesse v, m/s"/>
0.000000 0.000000 0.000000 0.000000 0.000000 0.000000 0.000000 0.000000 0.000000 0.000000 0.000000 0.000000 0.000000 0.000000 0.000000 0.000000 0.000000 0.000000 0.000000 0.000000 0.000000 0.000000 0.000000 0.000000 0.000000 0.000000 0.000000 0.000000 0.000000 0.000000 
0.000000 0.000000 0.000000 0.000000 0.000000 0.000000 0.000000 0.000000 0.000000 0.000000 0.000000 0.000000 0.000000 0.000000 0.000000 0.000000 0.000000 0.000000 0.000000 0.000000 0.000000 0.000000 0.000000 0.000000 0.000000 0.000000 0.000000 0.000000 0.000000 0.000000 
0.000000 0.000000 0.000000 0.000000 0.000000 0.000000 0.000000 0.000000 0.000000 0.000000 0.000000 0.000000 0.000000 0.000000 0.000000 0.000000 0.000000 0.000000 0.000000 0.000000 0.000000 0.000000 0.000000 0.000000 0.000000 0.000000 0.000000 0.000000 0.000000 0.000000 
0.000000 0.000000 0.000000 0.000000 0.000000 0.000000 0.000000 0.000000 0.000000 0.000000 0.000000 0.000000 0.000000 0.000000 0.000000 0.000000 0.000000 0.000000 0.000000 0.000000 0.000000 0.000000 0.000000 0.000000 0.000000 0.000000 0.000000 0.000000 0.000000 0.000000 
0.000000 0.000000 0.000000 0.000000 0.000000 0.000000 0.000000 0.000000 0.000000 0.000000 0.000000 0.000000 0.000000 0.000000 0.000000 0.000000 0.000000 0.000000 0.000000 0.000000 0.000000 0.000000 0.000000 0.000000 0.000000 0.000000 0.000000 0.000000 0.000000 0.000000 
0.000000 0.000000 0.000000 0.000000 0.000000 0.000000 0.000000 0.000000 0.000000 0.000000 0.000000 0.000000 0.000000 0.000000 0.000000 0.000000 0.000000 0.000000 0.000000 0.000000 0.000000 0.000000 0.000000 0.000000 0.000000 0.000000 0.000000 0.000000 0.000000 0.000000 
0.000000 0.000000 0.000000 0.000000 0.000000 0.000000 0.000000 0.000000 0.000000 0.000000 0.000000 0.000000 0.000000 0.000000 0.000000 0.000000 0.000000 0.000000 0.000000 0.000000 0.000000 0.000000 0.000000 0.000000 0.000000 0.000000 0.000000 0.000000 0.000000 0.000000 
0.000000 0.000000 0.000000 0.000000 0.000000 0.000000 0.000000 0.000000 0.000000 0.000000 0.000000 0.000000 0.000000 0.000000 0.000000 0.000000 0.000000 0.000000 0.000000 0.000000 0.000000 0.000000 0.000000 0.000000 0.000000 0.000000 0.000000 0.000000 0.000000 0.000000 
0.000000 0.000000 0.000000 0.000000 0.000000 0.000000 0.000000 0.000000 0.000000 0.000000 0.000000 0.000000 0.000000 0.000000 0.000000 0.000000 0.000000 0.000000 0.000000 0.000000 0.000000 0.000000 0.000000 0.000000 0.000000 0.000000 0.000000 0.000000 0.000000 0.000000 
0.000000 0.000000 0.000000 0.000000 0.000000 0.000000 0.000000 0.000000 0.000000 0.000000 0.000000 0.000000 0.000000 0.000000 0.000000 0.000000 0.000000 0.000000 0.000000 0.000000 0.000000 0.000000 0.000000 0.000000 0.000000 0.000000 0.000000 0.000000 0.000000 0.000000 
</CellData>
</Piece>
</StructuredGrid>
</VTKFile>
