<?xml version="1.0"?>
<VTKFile type="StructuredGrid">
<StructuredGrid WholeExtent="0 30 0 10 0 0">
<Piece Extent="0 30 0 10 0 0">
<Points>
<DataArray type="Float32" NumberOfComponents="3"/>
0.000000 0.000000 0.000000 0.000100 0.000000 0.000000 0.000200 0.000000 0.000000 0.000300 0.000000 0.000000 0.000400 0.000000 0.000000 0.000500 0.000000 0.000000 0.000600 0.000000 0.000000 0.000700 0.000000 0.000000 0.000800 0.000000 0.000000 0.000900 0.000000 0.000000 0.001000 0.000000 0.000000 0.001100 0.000000 0.000000 0.001200 0.000000 0.000000 0.001300 0.000000 0.000000 0.001400 0.000000 0.000000 0.001500 0.000000 0.000000 0.001600 0.000000 0.000000 0.001700 0.000000 0.000000 0.001800 0.000000 0.000000 0.001900 0.000000 0.000000 0.002000 0.000000 0.000000 0.002100 0.000000 0.000000 0.002200 0.000000 0.000000 0.002300 0.000000 0.000000 0.002400 0.000000 0.000000 0.002500 0.000000 0.000000 0.002600 0.000000 0.000000 0.002700 0.000000 0.000000 0.002800 0.000000 0.000000 0.002900 0.000000 0.000000 0.003000 0.000000 0.000000 
0.000000 0.000025 0.000000 0.000100 0.000025 0.000000 0.000200 0.000025 0.000000 0.000300 0.000025 0.000000 0.000400 0.000025 0.000000 0.000500 0.000025 0.000000 0.000600 0.000025 0.000000 0.000700 0.000025 0.000000 0.000800 0.000025 0.000000 0.000900 0.000025 0.000000 0.001000 0.000025 0.000000 0.001100 0.000025 0.000000 0.001200 0.000025 0.000000 0.001300 0.000025 0.000000 0.001400 0.000025 0.000000 0.001500 0.000025 0.000000 0.001600 0.000025 0.000000 0.001700 0.000025 0.000000 0.001800 0.000025 0.000000 0.001900 0.000025 0.000000 0.002000 0.000025 0.000000 0.002100 0.000025 0.000000 0.002200 0.000025 0.000000 0.002300 0.000025 0.000000 0.002400 0.000025 0.000000 0.002500 0.000025 0.000000 0.002600 0.000025 0.000000 0.002700 0.000025 0.000000 0.002800 0.000025 0.000000 0.002900 0.000025 0.000000 0.003000 0.000025 0.000000 
0.000000 0.000050 0.000000 0.000100 0.000050 0.000000 0.000200 0.000050 0.000000 0.000300 0.000050 0.000000 0.000400 0.000050 0.000000 0.000500 0.000050 0.000000 0.000600 0.000050 0.000000 0.000700 0.000050 0.000000 0.000800 0.000050 0.000000 0.000900 0.000050 0.000000 0.001000 0.000050 0.000000 0.001100 0.000050 0.000000 0.001200 0.000050 0.000000 0.001300 0.000050 0.000000 0.001400 0.000050 0.000000 0.001500 0.000050 0.000000 0.001600 0.000050 0.000000 0.001700 0.000050 0.000000 0.001800 0.000050 0.000000 0.001900 0.000050 0.000000 0.002000 0.000050 0.000000 0.002100 0.000050 0.000000 0.002200 0.000050 0.000000 0.002300 0.000050 0.000000 0.002400 0.000050 0.000000 0.002500 0.000050 0.000000 0.002600 0.000050 0.000000 0.002700 0.000050 0.000000 0.002800 0.000050 0.000000 0.002900 0.000050 0.000000 0.003000 0.000050 0.000000 
0.000000 0.000075 0.000000 0.000100 0.000075 0.000000 0.000200 0.000075 0.000000 0.000300 0.000075 0.000000 0.000400 0.000075 0.000000 0.000500 0.000075 0.000000 0.000600 0.000075 0.000000 0.000700 0.000075 0.000000 0.000800 0.000075 0.000000 0.000900 0.000075 0.000000 0.001000 0.000075 0.000000 0.001100 0.000075 0.000000 0.001200 0.000075 0.000000 0.001300 0.000075 0.000000 0.001400 0.000075 0.000000 0.001500 0.000075 0.000000 0.001600 0.000075 0.000000 0.001700 0.000075 0.000000 0.001800 0.000075 0.000000 0.001900 0.000075 0.000000 0.002000 0.000075 0.000000 0.002100 0.000075 0.000000 0.002200 0.000075 0.000000 0.002300 0.000075 0.000000 0.002400 0.000075 0.000000 0.002500 0.000075 0.000000 0.002600 0.000075 0.000000 0.002700 0.000075 0.000000 0.002800 0.000075 0.000000 0.002900 0.000075 0.000000 0.003000 0.000075 0.000000 
0.000000 0.000100 0.000000 0.000100 0.000100 0.000000 0.000200 0.000100 0.000000 0.000300 0.000100 0.000000 0.000400 0.000100 0.000000 0.000500 0.000100 0.000000 0.000600 0.000100 0.000000 0.000700 0.000100 0.000000 0.000800 0.000100 0.000000 0.000900 0.000100 0.000000 0.001000 0.000100 0.000000 0.001100 0.000100 0.000000 0.001200 0.000100 0.000000 0.001300 0.000100 0.000000 0.001400 0.000100 0.000000 0.001500 0.000100 0.000000 0.001600 0.000100 0.000000 0.001700 0.000100 0.000000 0.001800 0.000100 0.000000 0.001900 0.000100 0.000000 0.002000 0.000100 0.000000 0.002100 0.000100 0.000000 0.002200 0.000100 0.000000 0.002300 0.000100 0.000000 0.002400 0.000100 0.000000 0.002500 0.000100 0.000000 0.002600 0.000100 0.000000 0.002700 0.000100 0.000000 0.002800 0.000100 0.000000 0.002900 0.000100 0.000000 0.003000 0.000100 0.000000 
0.000000 0.000125 0.000000 0.000100 0.000125 0.000000 0.000200 0.000125 0.000000 0.000300 0.000125 0.000000 0.000400 0.000125 0.000000 0.000500 0.000125 0.000000 0.000600 0.000125 0.000000 0.000700 0.000125 0.000000 0.000800 0.000125 0.000000 0.000900 0.000125 0.000000 0.001000 0.000125 0.000000 0.001100 0.000125 0.000000 0.001200 0.000125 0.000000 0.001300 0.000125 0.000000 0.001400 0.000125 0.000000 0.001500 0.000125 0.000000 0.001600 0.000125 0.000000 0.001700 0.000125 0.000000 0.001800 0.000125 0.000000 0.001900 0.000125 0.000000 0.002000 0.000125 0.000000 0.002100 0.000125 0.000000 0.002200 0.000125 0.000000 0.002300 0.000125 0.000000 0.002400 0.000125 0.000000 0.002500 0.000125 0.000000 0.002600 0.000125 0.000000 0.002700 0.000125 0.000000 0.002800 0.000125 0.000000 0.002900 0.000125 0.000000 0.003000 0.000125 0.000000 
0.000000 0.000150 0.000000 0.000100 0.000150 0.000000 0.000200 0.000150 0.000000 0.000300 0.000150 0.000000 0.000400 0.000150 0.000000 0.000500 0.000150 0.000000 0.000600 0.000150 0.000000 0.000700 0.000150 0.000000 0.000800 0.000150 0.000000 0.000900 0.000150 0.000000 0.001000 0.000150 0.000000 0.001100 0.000150 0.000000 0.001200 0.000150 0.000000 0.001300 0.000150 0.000000 0.001400 0.000150 0.000000 0.001500 0.000150 0.000000 0.001600 0.000150 0.000000 0.001700 0.000150 0.000000 0.001800 0.000150 0.000000 0.001900 0.000150 0.000000 0.002000 0.000150 0.000000 0.002100 0.000150 0.000000 0.002200 0.000150 0.000000 0.002300 0.000150 0.000000 0.002400 0.000150 0.000000 0.002500 0.000150 0.000000 0.002600 0.000150 0.000000 0.002700 0.000150 0.000000 0.002800 0.000150 0.000000 0.002900 0.000150 0.000000 0.003000 0.000150 0.000000 
0.000000 0.000175 0.000000 0.000100 0.000175 0.000000 0.000200 0.000175 0.000000 0.000300 0.000175 0.000000 0.000400 0.000175 0.000000 0.000500 0.000175 0.000000 0.000600 0.000175 0.000000 0.000700 0.000175 0.000000 0.000800 0.000175 0.000000 0.000900 0.000175 0.000000 0.001000 0.000175 0.000000 0.001100 0.000175 0.000000 0.001200 0.000175 0.000000 0.001300 0.000175 0.000000 0.001400 0.000175 0.000000 0.001500 0.000175 0.000000 0.001600 0.000175 0.000000 0.001700 0.000175 0.000000 0.001800 0.000175 0.000000 0.001900 0.000175 0.000000 0.002000 0.000175 0.000000 0.002100 0.000175 0.000000 0.002200 0.000175 0.000000 0.002300 0.000175 0.000000 0.002400 0.000175 0.000000 0.002500 0.000175 0.000000 0.002600 0.000175 0.000000 0.002700 0.000175 0.000000 0.002800 0.000175 0.000000 0.002900 0.000175 0.000000 0.003000 0.000175 0.000000 
0.000000 0.000200 0.000000 0.000100 0.000200 0.000000 0.000200 0.000200 0.000000 0.000300 0.000200 0.000000 0.000400 0.000200 0.000000 0.000500 0.000200 0.000000 0.000600 0.000200 0.000000 0.000700 0.000200 0.000000 0.000800 0.000200 0.000000 0.000900 0.000200 0.000000 0.001000 0.000200 0.000000 0.001100 0.000200 0.000000 0.001200 0.000200 0.000000 0.001300 0.000200 0.000000 0.001400 0.000200 0.000000 0.001500 0.000200 0.000000 0.001600 0.000200 0.000000 0.001700 0.000200 0.000000 0.001800 0.000200 0.000000 0.001900 0.000200 0.000000 0.002000 0.000200 0.000000 0.002100 0.000200 0.000000 0.002200 0.000200 0.000000 0.002300 0.000200 0.000000 0.002400 0.000200 0.000000 0.002500 0.000200 0.000000 0.002600 0.000200 0.000000 0.002700 0.000200 0.000000 0.002800 0.000200 0.000000 0.002900 0.000200 0.000000 0.003000 0.000200 0.000000 
0.000000 0.000225 0.000000 0.000100 0.000225 0.000000 0.000200 0.000225 0.000000 0.000300 0.000225 0.000000 0.000400 0.000225 0.000000 0.000500 0.000225 0.000000 0.000600 0.000225 0.000000 0.000700 0.000225 0.000000 0.000800 0.000225 0.000000 0.000900 0.000225 0.000000 0.001000 0.000225 0.000000 0.001100 0.000225 0.000000 0.001200 0.000225 0.000000 0.001300 0.000225 0.000000 0.001400 0.000225 0.000000 0.001500 0.000225 0.000000 0.001600 0.000225 0.000000 0.001700 0.000225 0.000000 0.001800 0.000225 0.000000 0.001900 0.000225 0.000000 0.002000 0.000225 0.000000 0.002100 0.000225 0.000000 0.002200 0.000225 0.000000 0.002300 0.000225 0.000000 0.002400 0.000225 0.000000 0.002500 0.000225 0.000000 0.002600 0.000225 0.000000 0.002700 0.000225 0.000000 0.002800 0.000225 0.000000 0.002900 0.000225 0.000000 0.003000 0.000225 0.000000 
0.000000 0.000250 0.000000 0.000100 0.000250 0.000000 0.000200 0.000250 0.000000 0.000300 0.000250 0.000000 0.000400 0.000250 0.000000 0.000500 0.000250 0.000000 0.000600 0.000250 0.000000 0.000700 0.000250 0.000000 0.000800 0.000250 0.000000 0.000900 0.000250 0.000000 0.001000 0.000250 0.000000 0.001100 0.000250 0.000000 0.001200 0.000250 0.000000 0.001300 0.000250 0.000000 0.001400 0.000250 0.000000 0.001500 0.000250 0.000000 0.001600 0.000250 0.000000 0.001700 0.000250 0.000000 0.001800 0.000250 0.000000 0.001900 0.000250 0.000000 0.002000 0.000250 0.000000 0.002100 0.000250 0.000000 0.002200 0.000250 0.000000 0.002300 0.000250 0.000000 0.002400 0.000250 0.000000 0.002500 0.000250 0.000000 0.002600 0.000250 0.000000 0.002700 0.000250 0.000000 0.002800 0.000250 0.000000 0.002900 0.000250 0.000000 0.003000 0.000250 0.000000 
</Points>
<CellData Scalars="Temperature, U, V">
<DataArray type="Float32" Name="Temp, K"/>
42.971245 45.517075 45.982296 46.078354 46.098263 46.101734 46.102333 46.102417 46.102425 46.102428 46.102425 46.102425 46.102428 46.102425 46.102428 46.102425 46.102428 46.102428 46.102425 46.102428 46.102428 46.102428 46.102428 46.102428 46.102428 46.102428 46.102428 46.102428 46.102428 46.102428 
37.616257 41.287479 42.089325 42.269238 42.305141 42.312050 42.313107 42.313271 42.313290 42.313290 42.313290 42.313290 42.313290 42.313290 42.313290 42.313290 42.313290 42.313290 42.313290 42.313290 42.313293 42.313293 42.313293 42.313293 42.313293 42.313293 42.313293 42.313293 42.313293 42.313293 
33.503925 37.437469 38.443176 38.674694 38.724812 38.733700 38.735256 38.735462 38.735489 38.735493 38.735489 38.735489 38.735493 38.735489 38.735493 38.735489 38.735493 38.735493 38.735489 38.735493 38.735493 38.735493 38.735493 38.735493 38.735493 38.735493 38.735493 38.735493 38.735493 38.735493 
30.307333 34.062218 35.122398 35.388546 35.444214 35.455196 35.456886 35.457157 35.457184 35.457188 35.457188 35.457188 35.457184 35.457188 35.457184 35.457188 35.457188 35.457188 35.457188 35.457188 35.457188 35.457188 35.457188 35.457188 35.457188 35.457188 35.457188 35.457188 35.457188 35.457188 
27.850197 31.169086 32.213665 32.479435 32.540062 32.551083 32.553036 32.553291 32.553329 32.553333 32.553333 32.553333 32.553333 32.553333 32.553333 32.553333 32.553333 32.553333 32.553333 32.553333 32.553333 32.553333 32.553333 32.553333 32.553333 32.553333 32.553333 32.553333 32.553333 32.553333 
25.954178 28.797382 29.744862 30.006058 30.063423 30.075026 30.076836 30.077124 30.077154 30.077160 30.077160 30.077160 30.077158 30.077160 30.077158 30.077160 30.077160 30.077160 30.077160 30.077160 30.077160 30.077160 30.077160 30.077160 30.077160 30.077160 30.077160 30.077160 30.077160 30.077160 
24.553745 26.911549 27.764366 27.999813 28.055946 28.066452 28.068319 28.068571 28.068605 28.068609 28.068609 28.068609 28.068609 28.068609 28.068609 28.068609 28.068609 28.068609 28.068609 28.068609 28.068609 28.068609 28.068609 28.068609 28.068609 28.068609 28.068609 28.068609 28.068609 28.068609 
23.545378 25.527256 26.268034 26.486519 26.536818 26.547112 26.548759 26.549017 26.549046 26.549049 26.549049 26.549049 26.549049 26.549049 26.549049 26.549049 26.549049 26.549049 26.549049 26.549049 26.549049 26.549049 26.549049 26.549049 26.549049 26.549049 26.549049 26.549049 26.549049 26.549049 
22.908072 24.606426 25.276098 25.473175 25.521172 25.530489 25.532116 25.532343 25.532373 25.532375 25.532375 25.532375 25.532375 25.532375 25.532375 25.532375 25.532375 25.532375 25.532375 25.532375 25.532375 25.532375 25.532375 25.532375 25.532375 25.532375 25.532375 25.532375 25.532375 25.532375 
22.591660 24.153858 24.777704 24.966618 25.011938 25.021072 25.022600 25.022827 25.022854 25.022856 25.022856 25.022856 25.022856 25.022856 25.022856 25.022856 25.022856 25.022856 25.022856 25.022856 25.022856 25.022856 25.022856 25.022856 25.022856 25.022856 25.022856 25.022856 25.022856 25.022856 
<DataArray type="Float32" Name="Vitesse u, m/s"/>
0.050000 0.050000 0.050000 0.050000 0.050000 0.050000 0.050000 0.050000 0.050000 0.050000 0.050000 0.050000 0.050000 0.050000 0.050000 0.050000 0.050000 0.050000 0.050000 0.050000 0.050000 0.050000 0.050000 0.050000 0.050000 0.050000 0.050000 0.050000 0.050000 0.050000 
0.050000 0.050000 0.050000 0.050000 0.050000 0.050000 0.050000 0.050000 0.050000 0.050000 0.050000 0.050000 0.050000 0.050000 0.050000 0.050000 0.050000 0.050000 0.050000 0.050000 0.050000 0.050000 0.050000 0.050000 0.050000 0.050000 0.050000 0.050000 0.050000 0.050000 
0.050000 0.050000 0.050000 0.050000 0.050000 0.050000 0.050000 0.050000 0.050000 0.050000 0.050000 0.050000 0.050000 0.050000 0.050000 0.050000 0.050000 0.050000 0.050000 0.050000 0.050000 0.050000 0.050000 0.050000 0.050000 0.050000 0.050000 0.050000 0.050000 0.050000 
0.050000 0.050000 0.050000 0.050000 0.050000 0.050000 0.050000 0.050000 0.050000 0.050000 0.050000 0.050000 0.050000 0.050000 0.050000 0.050000 0.050000 0.050000 0.050000 0.050000 0.050000 0.050000 0.050000 0.050000 0.050000 0.050000 0.050000 0.050000 0.050000 0.050000 
0.050000 0.050000 0.050000 0.050000 0.050000 0.050000 0.050000 0.050000 0.050000 0.050000 0.050000 0.050000 0.050000 0.050000 0.050000 0.050000 0.050000 0.050000 0.050000 0.050000 0.050000 0.050000 0.050000 0.050000 0.050000 0.050000 0.050000 0.050000 0.050000 0.050000 
0.050000 0.050000 0.050000 0.050000 0.050000 0.050000 0.050000 0.050000 0.050000 0.050000 0.050000 0.050000 0.050000 0.050000 0.050000 0.050000 0.050000 0.050000 0.050000 0.050000 0.050000 0.050000 0.050000 0.050000 0.050000 0.050000 0.050000 0.050000 0.050000 0.050000 
0.050000 0.050000 0.050000 0.050000 0.050000 0.050000 0.050000 0.050000 0.050000 0.050000 0.050000 0.050000 0.050000 0.050000 0.050000 0.050000 0.050000 0.050000 0.050000 0.050000 0.050000 0.050000 0.050000 0.050000 0.050000 0.050000 0.050000 0.050000 0.050000 0.050000 
0.050000 0.050000 0.050000 0.050000 0.050000 0.050000 0.050000 0.050000 0.050000 0.050000 0.050000 0.050000 0.050000 0.050000 0.050000 0.050000 0.050000 0.050000 0.050000 0.050000 0.050000 0.050000 0.050000 0.050000 0.050000 0.050000 0.050000 0.050000 0.050000 0.050000 
0.050000 0.050000 0.050000 0.050000 0.050000 0.050000 0.050000 0.050000 0.050000 0.050000 0.050000 0.050000 0.050000 0.050000 0.050000 0.050000 0.050000 0.050000 0.050000 0.050000 0.050000 0.050000 0.050000 0.050000 0.050000 0.050000 0.050000 0.050000 0.050000 0.050000 
0.050000 0.050000 0.050000 0.050000 0.050000 0.050000 0.050000 0.050000 0.050000 0.050000 0.050000 0.050000 0.050000 0.050000 0.050000 0.050000 0.050000 0.050000 0.050000 0.050000 0.050000 0.050000 0.050000 0.050000 0.050000 0.050000 0.050000 0.050000 0.050000 0.050000 
<DataArray type="Float32" Name="Vitesse v, m/s"/>
0.000000 0.000000 0.000000 0.000000 0.000000 0.000000 0.000000 0.000000 0.000000 0.000000 0.000000 0.000000 0.000000 0.000000 0.000000 0.000000 0.000000 0.000000 0.000000 0.000000 0.000000 0.000000 0.000000 0.000000 0.000000 0.000000 0.000000 0.000000 0.000000 0.000000 
0.000000 0.000000 0.000000 0.000000 0.000000 0.000000 0.000000 0.000000 0.000000 0.000000 0.000000 0.000000 0.000000 0.000000 0.000000 0.000000 0.000000 0.000000 0.000000 0.000000 0.000000 0.000000 0.000000 0.000000 0.000000 0.000000 0.000000 0.000000 0.000000 0.000000 
0.000000 0.000000 0.000000 0.000000 0.000000 0.000000 0.000000 0.000000 0.000000 0.000000 0.000000 0.000000 0.000000 0.000000 0.000000 0.000000 0.000000 0.000000 0.000000 0.000000 0.000000 0.000000 0.000000 0.000000 0.000000 0.000000 0.000000 0.000000 0.000000 0.000000 
0.000000 0.000000 0.000000 0.000000 0.000000 0.000000 0.000000 0.000000 0.000000 0.000000 0.000000 0.000000 0.000000 0.000000 0.000000 0.000000 0.000000 0.000000 0.000000 0.000000 0.000000 0.000000 0.000000 0.000000 0.000000 0.000000 0.000000 0.000000 0.000000 0.000000 
0.000000 0.000000 0.000000 0.000000 0.000000 0.000000 0.000000 0.000000 0.000000 0.000000 0.000000 0.000000 0.000000 0.000000 0.000000 0.000000 0.000000 0.000000 0.000000 0.000000 0.000000 0.000000 0.000000 0.000000 0.000000 0.000000 0.000000 0.000000 0.000000 0.000000 
0.000000 0.000000 0.000000 0.000000 0.000000 0.000000 0.000000 0.000000 0.000000 0.000000 0.000000 0.000000 0.000000 0.000000 0.000000 0.000000 0.000000 0.000000 0.000000 0.000000 0.000000 0.000000 0.000000 0.000000 0.000000 0.000000 0.000000 0.000000 0.000000 0.000000 
0.000000 0.000000 0.000000 0.000000 0.000000 0.000000 0.000000 0.000000 0.000000 0.000000 0.000000 0.000000 0.000000 0.000000 0.000000 0.000000 0.000000 0.000000 0.000000 0.000000 0.000000 0.000000 0.000000 0.000000 0.000000 0.000000 0.000000 0.000000 0.000000 0.000000 
0.000000 0.000000 0.000000 0.000000 0.000000 0.000000 0.000000 0.000000 0.000000 0.000000 0.000000 0.000000 0.000000 0.000000 0.000000 0.000000 0.000000 0.000000 0.000000 0.000000 0.000000 0.000000 0.000000 0.000000 0.000000 0.000000 0.000000 0.000000 0.000000 0.000000 
0.000000 0.000000 0.000000 0.000000 0.000000 0.000000 0.000000 0.000000 0.000000 0.000000 0.000000 0.000000 0.000000 0.000000 0.000000 0.000000 0.000000 0.000000 0.000000 0.000000 0.000000 0.000000 0.000000 0.000000 0.000000 0.000000 0.000000 0.000000 0.000000 0.000000 
0.000000 0.000000 0.000000 0.000000 0.000000 0.000000 0.000000 0.000000 0.000000 0.000000 0.000000 0.000000 0.000000 0.000000 0.000000 0.000000 0.000000 0.000000 0.000000 0.000000 0.000000 0.000000 0.000000 0.000000 0.000000 0.000000 0.000000 0.000000 0.000000 0.000000 
</CellData>
</Piece>
</StructuredGrid>
</VTKFile>
