<?xml version="1.0"?>
<VTKFile type="StructuredGrid">
<StructuredGrid WholeExtent="0 30 0 10 0 0">
<Piece Extent="0 30 0 10 0 0">
<Points>
<DataArray type="Float32" NumberOfComponents="3"/>
0.000000 0.000000 0.000000 0.000100 0.000000 0.000000 0.000200 0.000000 0.000000 0.000300 0.000000 0.000000 0.000400 0.000000 0.000000 0.000500 0.000000 0.000000 0.000600 0.000000 0.000000 0.000700 0.000000 0.000000 0.000800 0.000000 0.000000 0.000900 0.000000 0.000000 0.001000 0.000000 0.000000 0.001100 0.000000 0.000000 0.001200 0.000000 0.000000 0.001300 0.000000 0.000000 0.001400 0.000000 0.000000 0.001500 0.000000 0.000000 0.001600 0.000000 0.000000 0.001700 0.000000 0.000000 0.001800 0.000000 0.000000 0.001900 0.000000 0.000000 0.002000 0.000000 0.000000 0.002100 0.000000 0.000000 0.002200 0.000000 0.000000 0.002300 0.000000 0.000000 0.002400 0.000000 0.000000 0.002500 0.000000 0.000000 0.002600 0.000000 0.000000 0.002700 0.000000 0.000000 0.002800 0.000000 0.000000 0.002900 0.000000 0.000000 0.003000 0.000000 0.000000 
0.000000 0.000025 0.000000 0.000100 0.000025 0.000000 0.000200 0.000025 0.000000 0.000300 0.000025 0.000000 0.000400 0.000025 0.000000 0.000500 0.000025 0.000000 0.000600 0.000025 0.000000 0.000700 0.000025 0.000000 0.000800 0.000025 0.000000 0.000900 0.000025 0.000000 0.001000 0.000025 0.000000 0.001100 0.000025 0.000000 0.001200 0.000025 0.000000 0.001300 0.000025 0.000000 0.001400 0.000025 0.000000 0.001500 0.000025 0.000000 0.001600 0.000025 0.000000 0.001700 0.000025 0.000000 0.001800 0.000025 0.000000 0.001900 0.000025 0.000000 0.002000 0.000025 0.000000 0.002100 0.000025 0.000000 0.002200 0.000025 0.000000 0.002300 0.000025 0.000000 0.002400 0.000025 0.000000 0.002500 0.000025 0.000000 0.002600 0.000025 0.000000 0.002700 0.000025 0.000000 0.002800 0.000025 0.000000 0.002900 0.000025 0.000000 0.003000 0.000025 0.000000 
0.000000 0.000050 0.000000 0.000100 0.000050 0.000000 0.000200 0.000050 0.000000 0.000300 0.000050 0.000000 0.000400 0.000050 0.000000 0.000500 0.000050 0.000000 0.000600 0.000050 0.000000 0.000700 0.000050 0.000000 0.000800 0.000050 0.000000 0.000900 0.000050 0.000000 0.001000 0.000050 0.000000 0.001100 0.000050 0.000000 0.001200 0.000050 0.000000 0.001300 0.000050 0.000000 0.001400 0.000050 0.000000 0.001500 0.000050 0.000000 0.001600 0.000050 0.000000 0.001700 0.000050 0.000000 0.001800 0.000050 0.000000 0.001900 0.000050 0.000000 0.002000 0.000050 0.000000 0.002100 0.000050 0.000000 0.002200 0.000050 0.000000 0.002300 0.000050 0.000000 0.002400 0.000050 0.000000 0.002500 0.000050 0.000000 0.002600 0.000050 0.000000 0.002700 0.000050 0.000000 0.002800 0.000050 0.000000 0.002900 0.000050 0.000000 0.003000 0.000050 0.000000 
0.000000 0.000075 0.000000 0.000100 0.000075 0.000000 0.000200 0.000075 0.000000 0.000300 0.000075 0.000000 0.000400 0.000075 0.000000 0.000500 0.000075 0.000000 0.000600 0.000075 0.000000 0.000700 0.000075 0.000000 0.000800 0.000075 0.000000 0.000900 0.000075 0.000000 0.001000 0.000075 0.000000 0.001100 0.000075 0.000000 0.001200 0.000075 0.000000 0.001300 0.000075 0.000000 0.001400 0.000075 0.000000 0.001500 0.000075 0.000000 0.001600 0.000075 0.000000 0.001700 0.000075 0.000000 0.001800 0.000075 0.000000 0.001900 0.000075 0.000000 0.002000 0.000075 0.000000 0.002100 0.000075 0.000000 0.002200 0.000075 0.000000 0.002300 0.000075 0.000000 0.002400 0.000075 0.000000 0.002500 0.000075 0.000000 0.002600 0.000075 0.000000 0.002700 0.000075 0.000000 0.002800 0.000075 0.000000 0.002900 0.000075 0.000000 0.003000 0.000075 0.000000 
0.000000 0.000100 0.000000 0.000100 0.000100 0.000000 0.000200 0.000100 0.000000 0.000300 0.000100 0.000000 0.000400 0.000100 0.000000 0.000500 0.000100 0.000000 0.000600 0.000100 0.000000 0.000700 0.000100 0.000000 0.000800 0.000100 0.000000 0.000900 0.000100 0.000000 0.001000 0.000100 0.000000 0.001100 0.000100 0.000000 0.001200 0.000100 0.000000 0.001300 0.000100 0.000000 0.001400 0.000100 0.000000 0.001500 0.000100 0.000000 0.001600 0.000100 0.000000 0.001700 0.000100 0.000000 0.001800 0.000100 0.000000 0.001900 0.000100 0.000000 0.002000 0.000100 0.000000 0.002100 0.000100 0.000000 0.002200 0.000100 0.000000 0.002300 0.000100 0.000000 0.002400 0.000100 0.000000 0.002500 0.000100 0.000000 0.002600 0.000100 0.000000 0.002700 0.000100 0.000000 0.002800 0.000100 0.000000 0.002900 0.000100 0.000000 0.003000 0.000100 0.000000 
0.000000 0.000125 0.000000 0.000100 0.000125 0.000000 0.000200 0.000125 0.000000 0.000300 0.000125 0.000000 0.000400 0.000125 0.000000 0.000500 0.000125 0.000000 0.000600 0.000125 0.000000 0.000700 0.000125 0.000000 0.000800 0.000125 0.000000 0.000900 0.000125 0.000000 0.001000 0.000125 0.000000 0.001100 0.000125 0.000000 0.001200 0.000125 0.000000 0.001300 0.000125 0.000000 0.001400 0.000125 0.000000 0.001500 0.000125 0.000000 0.001600 0.000125 0.000000 0.001700 0.000125 0.000000 0.001800 0.000125 0.000000 0.001900 0.000125 0.000000 0.002000 0.000125 0.000000 0.002100 0.000125 0.000000 0.002200 0.000125 0.000000 0.002300 0.000125 0.000000 0.002400 0.000125 0.000000 0.002500 0.000125 0.000000 0.002600 0.000125 0.000000 0.002700 0.000125 0.000000 0.002800 0.000125 0.000000 0.002900 0.000125 0.000000 0.003000 0.000125 0.000000 
0.000000 0.000150 0.000000 0.000100 0.000150 0.000000 0.000200 0.000150 0.000000 0.000300 0.000150 0.000000 0.000400 0.000150 0.000000 0.000500 0.000150 0.000000 0.000600 0.000150 0.000000 0.000700 0.000150 0.000000 0.000800 0.000150 0.000000 0.000900 0.000150 0.000000 0.001000 0.000150 0.000000 0.001100 0.000150 0.000000 0.001200 0.000150 0.000000 0.001300 0.000150 0.000000 0.001400 0.000150 0.000000 0.001500 0.000150 0.000000 0.001600 0.000150 0.000000 0.001700 0.000150 0.000000 0.001800 0.000150 0.000000 0.001900 0.000150 0.000000 0.002000 0.000150 0.000000 0.002100 0.000150 0.000000 0.002200 0.000150 0.000000 0.002300 0.000150 0.000000 0.002400 0.000150 0.000000 0.002500 0.000150 0.000000 0.002600 0.000150 0.000000 0.002700 0.000150 0.000000 0.002800 0.000150 0.000000 0.002900 0.000150 0.000000 0.003000 0.000150 0.000000 
0.000000 0.000175 0.000000 0.000100 0.000175 0.000000 0.000200 0.000175 0.000000 0.000300 0.000175 0.000000 0.000400 0.000175 0.000000 0.000500 0.000175 0.000000 0.000600 0.000175 0.000000 0.000700 0.000175 0.000000 0.000800 0.000175 0.000000 0.000900 0.000175 0.000000 0.001000 0.000175 0.000000 0.001100 0.000175 0.000000 0.001200 0.000175 0.000000 0.001300 0.000175 0.000000 0.001400 0.000175 0.000000 0.001500 0.000175 0.000000 0.001600 0.000175 0.000000 0.001700 0.000175 0.000000 0.001800 0.000175 0.000000 0.001900 0.000175 0.000000 0.002000 0.000175 0.000000 0.002100 0.000175 0.000000 0.002200 0.000175 0.000000 0.002300 0.000175 0.000000 0.002400 0.000175 0.000000 0.002500 0.000175 0.000000 0.002600 0.000175 0.000000 0.002700 0.000175 0.000000 0.002800 0.000175 0.000000 0.002900 0.000175 0.000000 0.003000 0.000175 0.000000 
0.000000 0.000200 0.000000 0.000100 0.000200 0.000000 0.000200 0.000200 0.000000 0.000300 0.000200 0.000000 0.000400 0.000200 0.000000 0.000500 0.000200 0.000000 0.000600 0.000200 0.000000 0.000700 0.000200 0.000000 0.000800 0.000200 0.000000 0.000900 0.000200 0.000000 0.001000 0.000200 0.000000 0.001100 0.000200 0.000000 0.001200 0.000200 0.000000 0.001300 0.000200 0.000000 0.001400 0.000200 0.000000 0.001500 0.000200 0.000000 0.001600 0.000200 0.000000 0.001700 0.000200 0.000000 0.001800 0.000200 0.000000 0.001900 0.000200 0.000000 0.002000 0.000200 0.000000 0.002100 0.000200 0.000000 0.002200 0.000200 0.000000 0.002300 0.000200 0.000000 0.002400 0.000200 0.000000 0.002500 0.000200 0.000000 0.002600 0.000200 0.000000 0.002700 0.000200 0.000000 0.002800 0.000200 0.000000 0.002900 0.000200 0.000000 0.003000 0.000200 0.000000 
0.000000 0.000225 0.000000 0.000100 0.000225 0.000000 0.000200 0.000225 0.000000 0.000300 0.000225 0.000000 0.000400 0.000225 0.000000 0.000500 0.000225 0.000000 0.000600 0.000225 0.000000 0.000700 0.000225 0.000000 0.000800 0.000225 0.000000 0.000900 0.000225 0.000000 0.001000 0.000225 0.000000 0.001100 0.000225 0.000000 0.001200 0.000225 0.000000 0.001300 0.000225 0.000000 0.001400 0.000225 0.000000 0.001500 0.000225 0.000000 0.001600 0.000225 0.000000 0.001700 0.000225 0.000000 0.001800 0.000225 0.000000 0.001900 0.000225 0.000000 0.002000 0.000225 0.000000 0.002100 0.000225 0.000000 0.002200 0.000225 0.000000 0.002300 0.000225 0.000000 0.002400 0.000225 0.000000 0.002500 0.000225 0.000000 0.002600 0.000225 0.000000 0.002700 0.000225 0.000000 0.002800 0.000225 0.000000 0.002900 0.000225 0.000000 0.003000 0.000225 0.000000 
0.000000 0.000250 0.000000 0.000100 0.000250 0.000000 0.000200 0.000250 0.000000 0.000300 0.000250 0.000000 0.000400 0.000250 0.000000 0.000500 0.000250 0.000000 0.000600 0.000250 0.000000 0.000700 0.000250 0.000000 0.000800 0.000250 0.000000 0.000900 0.000250 0.000000 0.001000 0.000250 0.000000 0.001100 0.000250 0.000000 0.001200 0.000250 0.000000 0.001300 0.000250 0.000000 0.001400 0.000250 0.000000 0.001500 0.000250 0.000000 0.001600 0.000250 0.000000 0.001700 0.000250 0.000000 0.001800 0.000250 0.000000 0.001900 0.000250 0.000000 0.002000 0.000250 0.000000 0.002100 0.000250 0.000000 0.002200 0.000250 0.000000 0.002300 0.000250 0.000000 0.002400 0.000250 0.000000 0.002500 0.000250 0.000000 0.002600 0.000250 0.000000 0.002700 0.000250 0.000000 0.002800 0.000250 0.000000 0.002900 0.000250 0.000000 0.003000 0.000250 0.000000 
</Points>
<CellData Scalars="Temperature, U, V">
<DataArray type="Float32" Name="Temp, K"/>
40.265839 41.607895 41.681564 41.686108 41.686218 41.686226 41.686226 41.686226 41.686226 41.686226 41.686226 41.686226 41.686226 41.686226 41.686226 41.686226 41.686226 41.686226 41.686226 41.686226 41.686226 41.686226 41.686226 41.686226 41.686226 41.686226 41.686226 41.686226 41.686226 41.686226 
33.068565 34.400917 34.512714 34.516964 34.517204 34.517204 34.517204 34.517204 34.517204 34.517204 34.517204 34.517204 34.517204 34.517204 34.517204 34.517204 34.517204 34.517204 34.517204 34.517204 34.517204 34.517204 34.517204 34.517204 34.517204 34.517204 34.517204 34.517204 34.517204 34.517204 
27.301706 28.399614 28.468239 28.473211 28.473297 28.473303 28.473303 28.473303 28.473301 28.473303 28.473303 28.473303 28.473301 28.473303 28.473301 28.473303 28.473301 28.473301 28.473303 28.473301 28.473303 28.473301 28.473301 28.473303 28.473303 28.473303 28.473301 28.473303 28.473301 28.473301 
24.094358 24.622509 24.677807 24.679266 24.679356 24.679354 24.679356 24.679356 24.679356 24.679356 24.679354 24.679354 24.679356 24.679354 24.679356 24.679354 24.679356 24.679356 24.679354 24.679356 24.679356 24.679356 24.679356 24.679356 24.679356 24.679356 24.679356 24.679356 24.679356 24.679356 
21.663267 21.984339 21.998581 21.999718 21.999718 21.999718 21.999718 21.999718 21.999718 21.999718 21.999718 21.999718 21.999718 21.999718 21.999718 21.999718 21.999718 21.999718 21.999718 21.999718 21.999718 21.999718 21.999718 21.999718 21.999718 21.999718 21.999718 21.999718 21.999718 21.999718 
20.787251 20.862507 20.871229 20.871227 20.871227 20.871227 20.871227 20.871227 20.871227 20.871227 20.871227 20.871227 20.871227 20.871227 20.871227 20.871227 20.871227 20.871227 20.871227 20.871227 20.871227 20.871227 20.871227 20.871227 20.871227 20.871227 20.871227 20.871227 20.871227 20.871227 
20.175428 20.212641 20.212641 20.212641 20.212641 20.212641 20.212641 20.212641 20.212641 20.212641 20.212641 20.212641 20.212641 20.212641 20.212641 20.212641 20.212641 20.212641 20.212641 20.212641 20.212641 20.212641 20.212641 20.212641 20.212641 20.212641 20.212641 20.212641 20.212641 20.212641 
20.068045 20.068045 20.068045 20.068045 20.068045 20.068045 20.068045 20.068045 20.068045 20.068045 20.068045 20.068045 20.068045 20.068045 20.068045 20.068045 20.068045 20.068045 20.068045 20.068045 20.068045 20.068045 20.068045 20.068045 20.068045 20.068045 20.068045 20.068045 20.068045 20.068045 
20.000000 20.000000 20.000000 20.000000 20.000000 20.000000 20.000000 20.000000 20.000000 20.000000 20.000000 20.000000 20.000000 20.000000 20.000000 20.000000 20.000000 20.000000 20.000000 20.000000 20.000000 20.000000 20.000000 20.000000 20.000000 20.000000 20.000000 20.000000 20.000000 20.000000 
20.000000 20.000000 20.000000 20.000000 20.000000 20.000000 20.000000 20.000000 20.000000 20.000000 20.000000 20.000000 20.000000 20.000000 20.000000 20.000000 20.000000 20.000000 20.000000 20.000000 20.000000 20.000000 20.000000 20.000000 20.000000 20.000000 20.000000 20.000000 20.000000 20.000000 
<DataArray type="Float32" Name="Vitesse u, m/s"/>
0.050000 0.050000 0.050000 0.050000 0.050000 0.050000 0.050000 0.050000 0.050000 0.050000 0.050000 0.050000 0.050000 0.050000 0.050000 0.050000 0.050000 0.050000 0.050000 0.050000 0.050000 0.050000 0.050000 0.050000 0.050000 0.050000 0.050000 0.050000 0.050000 0.050000 
0.050000 0.050000 0.050000 0.050000 0.050000 0.050000 0.050000 0.050000 0.050000 0.050000 0.050000 0.050000 0.050000 0.050000 0.050000 0.050000 0.050000 0.050000 0.050000 0.050000 0.050000 0.050000 0.050000 0.050000 0.050000 0.050000 0.050000 0.050000 0.050000 0.050000 
0.050000 0.050000 0.050000 0.050000 0.050000 0.050000 0.050000 0.050000 0.050000 0.050000 0.050000 0.050000 0.050000 0.050000 0.050000 0.050000 0.050000 0.050000 0.050000 0.050000 0.050000 0.050000 0.050000 0.050000 0.050000 0.050000 0.050000 0.050000 0.050000 0.050000 
0.050000 0.050000 0.050000 0.050000 0.050000 0.050000 0.050000 0.050000 0.050000 0.050000 0.050000 0.050000 0.050000 0.050000 0.050000 0.050000 0.050000 0.050000 0.050000 0.050000 0.050000 0.050000 0.050000 0.050000 0.050000 0.050000 0.050000 0.050000 0.050000 0.050000 
0.050000 0.050000 0.050000 0.050000 0.050000 0.050000 0.050000 0.050000 0.050000 0.050000 0.050000 0.050000 0.050000 0.050000 0.050000 0.050000 0.050000 0.050000 0.050000 0.050000 0.050000 0.050000 0.050000 0.050000 0.050000 0.050000 0.050000 0.050000 0.050000 0.050000 
0.050000 0.050000 0.050000 0.050000 0.050000 0.050000 0.050000 0.050000 0.050000 0.050000 0.050000 0.050000 0.050000 0.050000 0.050000 0.050000 0.050000 0.050000 0.050000 0.050000 0.050000 0.050000 0.050000 0.050000 0.050000 0.050000 0.050000 0.050000 0.050000 0.050000 
0.050000 0.050000 0.050000 0.050000 0.050000 0.050000 0.050000 0.050000 0.050000 0.050000 0.050000 0.050000 0.050000 0.050000 0.050000 0.050000 0.050000 0.050000 0.050000 0.050000 0.050000 0.050000 0.050000 0.050000 0.050000 0.050000 0.050000 0.050000 0.050000 0.050000 
0.050000 0.050000 0.050000 0.050000 0.050000 0.050000 0.050000 0.050000 0.050000 0.050000 0.050000 0.050000 0.050000 0.050000 0.050000 0.050000 0.050000 0.050000 0.050000 0.050000 0.050000 0.050000 0.050000 0.050000 0.050000 0.050000 0.050000 0.050000 0.050000 0.050000 
0.050000 0.050000 0.050000 0.050000 0.050000 0.050000 0.050000 0.050000 0.050000 0.050000 0.050000 0.050000 0.050000 0.050000 0.050000 0.050000 0.050000 0.050000 0.050000 0.050000 0.050000 0.050000 0.050000 0.050000 0.050000 0.050000 0.050000 0.050000 0.050000 0.050000 
0.050000 0.050000 0.050000 0.050000 0.050000 0.050000 0.050000 0.050000 0.050000 0.050000 0.050000 0.050000 0.050000 0.050000 0.050000 0.050000 0.050000 0.050000 0.050000 0.050000 0.050000 0.050000 0.050000 0.050000 0.050000 0.050000 0.050000 0.050000 0.050000 0.050000 
<DataArray type="Float32" Name="Vitesse v, m/s"/>
0.000000 0.000000 0.000000 0.000000 0.000000 0.000000 0.000000 0.000000 0.000000 0.000000 0.000000 0.000000 0.000000 0.000000 0.000000 0.000000 0.000000 0.000000 0.000000 0.000000 0.000000 0.000000 0.000000 0.000000 0.000000 0.000000 0.000000 0.000000 0.000000 0.000000 
0.000000 0.000000 0.000000 0.000000 0.000000 0.000000 0.000000 0.000000 0.000000 0.000000 0.000000 0.000000 0.000000 0.000000 0.000000 0.000000 0.000000 0.000000 0.000000 0.000000 0.000000 0.000000 0.000000 0.000000 0.000000 0.000000 0.000000 0.000000 0.000000 0.000000 
0.000000 0.000000 0.000000 0.000000 0.000000 0.000000 0.000000 0.000000 0.000000 0.000000 0.000000 0.000000 0.000000 0.000000 0.000000 0.000000 0.000000 0.000000 0.000000 0.000000 0.000000 0.000000 0.000000 0.000000 0.000000 0.000000 0.000000 0.000000 0.000000 0.000000 
0.000000 0.000000 0.000000 0.000000 0.000000 0.000000 0.000000 0.000000 0.000000 0.000000 0.000000 0.000000 0.000000 0.000000 0.000000 0.000000 0.000000 0.000000 0.000000 0.000000 0.000000 0.000000 0.000000 0.000000 0.000000 0.000000 0.000000 0.000000 0.000000 0.000000 
0.000000 0.000000 0.000000 0.000000 0.000000 0.000000 0.000000 0.000000 0.000000 0.000000 0.000000 0.000000 0.000000 0.000000 0.000000 0.000000 0.000000 0.000000 0.000000 0.000000 0.000000 0.000000 0.000000 0.000000 0.000000 0.000000 0.000000 0.000000 0.000000 0.000000 
0.000000 0.000000 0.000000 0.000000 0.000000 0.000000 0.000000 0.000000 0.000000 0.000000 0.000000 0.000000 0.000000 0.000000 0.000000 0.000000 0.000000 0.000000 0.000000 0.000000 0.000000 0.000000 0.000000 0.000000 0.000000 0.000000 0.000000 0.000000 0.000000 0.000000 
0.000000 0.000000 0.000000 0.000000 0.000000 0.000000 0.000000 0.000000 0.000000 0.000000 0.000000 0.000000 0.000000 0.000000 0.000000 0.000000 0.000000 0.000000 0.000000 0.000000 0.000000 0.000000 0.000000 0.000000 0.000000 0.000000 0.000000 0.000000 0.000000 0.000000 
0.000000 0.000000 0.000000 0.000000 0.000000 0.000000 0.000000 0.000000 0.000000 0.000000 0.000000 0.000000 0.000000 0.000000 0.000000 0.000000 0.000000 0.000000 0.000000 0.000000 0.000000 0.000000 0.000000 0.000000 0.000000 0.000000 0.000000 0.000000 0.000000 0.000000 
0.000000 0.000000 0.000000 0.000000 0.000000 0.000000 0.000000 0.000000 0.000000 0.000000 0.000000 0.000000 0.000000 0.000000 0.000000 0.000000 0.000000 0.000000 0.000000 0.000000 0.000000 0.000000 0.000000 0.000000 0.000000 0.000000 0.000000 0.000000 0.000000 0.000000 
0.000000 0.000000 0.000000 0.000000 0.000000 0.000000 0.000000 0.000000 0.000000 0.000000 0.000000 0.000000 0.000000 0.000000 0.000000 0.000000 0.000000 0.000000 0.000000 0.000000 0.000000 0.000000 0.000000 0.000000 0.000000 0.000000 0.000000 0.000000 0.000000 0.000000 
</CellData>
</Piece>
</StructuredGrid>
</VTKFile>
