<?xml version="1.0"?>
<VTKFile type="StructuredGrid">
<StructuredGrid WholeExtent="0 30 0 10 0 0">
<Piece Extent="0 30 0 10 0 0">
<Points>
<DataArray type="Float32" NumberOfComponents="3"/>
0.000000 0.000000 0.000000 0.000100 0.000000 0.000000 0.000200 0.000000 0.000000 0.000300 0.000000 0.000000 0.000400 0.000000 0.000000 0.000500 0.000000 0.000000 0.000600 0.000000 0.000000 0.000700 0.000000 0.000000 0.000800 0.000000 0.000000 0.000900 0.000000 0.000000 0.001000 0.000000 0.000000 0.001100 0.000000 0.000000 0.001200 0.000000 0.000000 0.001300 0.000000 0.000000 0.001400 0.000000 0.000000 0.001500 0.000000 0.000000 0.001600 0.000000 0.000000 0.001700 0.000000 0.000000 0.001800 0.000000 0.000000 0.001900 0.000000 0.000000 0.002000 0.000000 0.000000 0.002100 0.000000 0.000000 0.002200 0.000000 0.000000 0.002300 0.000000 0.000000 0.002400 0.000000 0.000000 0.002500 0.000000 0.000000 0.002600 0.000000 0.000000 0.002700 0.000000 0.000000 0.002800 0.000000 0.000000 0.002900 0.000000 0.000000 0.003000 0.000000 0.000000 
0.000000 0.000025 0.000000 0.000100 0.000025 0.000000 0.000200 0.000025 0.000000 0.000300 0.000025 0.000000 0.000400 0.000025 0.000000 0.000500 0.000025 0.000000 0.000600 0.000025 0.000000 0.000700 0.000025 0.000000 0.000800 0.000025 0.000000 0.000900 0.000025 0.000000 0.001000 0.000025 0.000000 0.001100 0.000025 0.000000 0.001200 0.000025 0.000000 0.001300 0.000025 0.000000 0.001400 0.000025 0.000000 0.001500 0.000025 0.000000 0.001600 0.000025 0.000000 0.001700 0.000025 0.000000 0.001800 0.000025 0.000000 0.001900 0.000025 0.000000 0.002000 0.000025 0.000000 0.002100 0.000025 0.000000 0.002200 0.000025 0.000000 0.002300 0.000025 0.000000 0.002400 0.000025 0.000000 0.002500 0.000025 0.000000 0.002600 0.000025 0.000000 0.002700 0.000025 0.000000 0.002800 0.000025 0.000000 0.002900 0.000025 0.000000 0.003000 0.000025 0.000000 
0.000000 0.000050 0.000000 0.000100 0.000050 0.000000 0.000200 0.000050 0.000000 0.000300 0.000050 0.000000 0.000400 0.000050 0.000000 0.000500 0.000050 0.000000 0.000600 0.000050 0.000000 0.000700 0.000050 0.000000 0.000800 0.000050 0.000000 0.000900 0.000050 0.000000 0.001000 0.000050 0.000000 0.001100 0.000050 0.000000 0.001200 0.000050 0.000000 0.001300 0.000050 0.000000 0.001400 0.000050 0.000000 0.001500 0.000050 0.000000 0.001600 0.000050 0.000000 0.001700 0.000050 0.000000 0.001800 0.000050 0.000000 0.001900 0.000050 0.000000 0.002000 0.000050 0.000000 0.002100 0.000050 0.000000 0.002200 0.000050 0.000000 0.002300 0.000050 0.000000 0.002400 0.000050 0.000000 0.002500 0.000050 0.000000 0.002600 0.000050 0.000000 0.002700 0.000050 0.000000 0.002800 0.000050 0.000000 0.002900 0.000050 0.000000 0.003000 0.000050 0.000000 
0.000000 0.000075 0.000000 0.000100 0.000075 0.000000 0.000200 0.000075 0.000000 0.000300 0.000075 0.000000 0.000400 0.000075 0.000000 0.000500 0.000075 0.000000 0.000600 0.000075 0.000000 0.000700 0.000075 0.000000 0.000800 0.000075 0.000000 0.000900 0.000075 0.000000 0.001000 0.000075 0.000000 0.001100 0.000075 0.000000 0.001200 0.000075 0.000000 0.001300 0.000075 0.000000 0.001400 0.000075 0.000000 0.001500 0.000075 0.000000 0.001600 0.000075 0.000000 0.001700 0.000075 0.000000 0.001800 0.000075 0.000000 0.001900 0.000075 0.000000 0.002000 0.000075 0.000000 0.002100 0.000075 0.000000 0.002200 0.000075 0.000000 0.002300 0.000075 0.000000 0.002400 0.000075 0.000000 0.002500 0.000075 0.000000 0.002600 0.000075 0.000000 0.002700 0.000075 0.000000 0.002800 0.000075 0.000000 0.002900 0.000075 0.000000 0.003000 0.000075 0.000000 
0.000000 0.000100 0.000000 0.000100 0.000100 0.000000 0.000200 0.000100 0.000000 0.000300 0.000100 0.000000 0.000400 0.000100 0.000000 0.000500 0.000100 0.000000 0.000600 0.000100 0.000000 0.000700 0.000100 0.000000 0.000800 0.000100 0.000000 0.000900 0.000100 0.000000 0.001000 0.000100 0.000000 0.001100 0.000100 0.000000 0.001200 0.000100 0.000000 0.001300 0.000100 0.000000 0.001400 0.000100 0.000000 0.001500 0.000100 0.000000 0.001600 0.000100 0.000000 0.001700 0.000100 0.000000 0.001800 0.000100 0.000000 0.001900 0.000100 0.000000 0.002000 0.000100 0.000000 0.002100 0.000100 0.000000 0.002200 0.000100 0.000000 0.002300 0.000100 0.000000 0.002400 0.000100 0.000000 0.002500 0.000100 0.000000 0.002600 0.000100 0.000000 0.002700 0.000100 0.000000 0.002800 0.000100 0.000000 0.002900 0.000100 0.000000 0.003000 0.000100 0.000000 
0.000000 0.000125 0.000000 0.000100 0.000125 0.000000 0.000200 0.000125 0.000000 0.000300 0.000125 0.000000 0.000400 0.000125 0.000000 0.000500 0.000125 0.000000 0.000600 0.000125 0.000000 0.000700 0.000125 0.000000 0.000800 0.000125 0.000000 0.000900 0.000125 0.000000 0.001000 0.000125 0.000000 0.001100 0.000125 0.000000 0.001200 0.000125 0.000000 0.001300 0.000125 0.000000 0.001400 0.000125 0.000000 0.001500 0.000125 0.000000 0.001600 0.000125 0.000000 0.001700 0.000125 0.000000 0.001800 0.000125 0.000000 0.001900 0.000125 0.000000 0.002000 0.000125 0.000000 0.002100 0.000125 0.000000 0.002200 0.000125 0.000000 0.002300 0.000125 0.000000 0.002400 0.000125 0.000000 0.002500 0.000125 0.000000 0.002600 0.000125 0.000000 0.002700 0.000125 0.000000 0.002800 0.000125 0.000000 0.002900 0.000125 0.000000 0.003000 0.000125 0.000000 
0.000000 0.000150 0.000000 0.000100 0.000150 0.000000 0.000200 0.000150 0.000000 0.000300 0.000150 0.000000 0.000400 0.000150 0.000000 0.000500 0.000150 0.000000 0.000600 0.000150 0.000000 0.000700 0.000150 0.000000 0.000800 0.000150 0.000000 0.000900 0.000150 0.000000 0.001000 0.000150 0.000000 0.001100 0.000150 0.000000 0.001200 0.000150 0.000000 0.001300 0.000150 0.000000 0.001400 0.000150 0.000000 0.001500 0.000150 0.000000 0.001600 0.000150 0.000000 0.001700 0.000150 0.000000 0.001800 0.000150 0.000000 0.001900 0.000150 0.000000 0.002000 0.000150 0.000000 0.002100 0.000150 0.000000 0.002200 0.000150 0.000000 0.002300 0.000150 0.000000 0.002400 0.000150 0.000000 0.002500 0.000150 0.000000 0.002600 0.000150 0.000000 0.002700 0.000150 0.000000 0.002800 0.000150 0.000000 0.002900 0.000150 0.000000 0.003000 0.000150 0.000000 
0.000000 0.000175 0.000000 0.000100 0.000175 0.000000 0.000200 0.000175 0.000000 0.000300 0.000175 0.000000 0.000400 0.000175 0.000000 0.000500 0.000175 0.000000 0.000600 0.000175 0.000000 0.000700 0.000175 0.000000 0.000800 0.000175 0.000000 0.000900 0.000175 0.000000 0.001000 0.000175 0.000000 0.001100 0.000175 0.000000 0.001200 0.000175 0.000000 0.001300 0.000175 0.000000 0.001400 0.000175 0.000000 0.001500 0.000175 0.000000 0.001600 0.000175 0.000000 0.001700 0.000175 0.000000 0.001800 0.000175 0.000000 0.001900 0.000175 0.000000 0.002000 0.000175 0.000000 0.002100 0.000175 0.000000 0.002200 0.000175 0.000000 0.002300 0.000175 0.000000 0.002400 0.000175 0.000000 0.002500 0.000175 0.000000 0.002600 0.000175 0.000000 0.002700 0.000175 0.000000 0.002800 0.000175 0.000000 0.002900 0.000175 0.000000 0.003000 0.000175 0.000000 
0.000000 0.000200 0.000000 0.000100 0.000200 0.000000 0.000200 0.000200 0.000000 0.000300 0.000200 0.000000 0.000400 0.000200 0.000000 0.000500 0.000200 0.000000 0.000600 0.000200 0.000000 0.000700 0.000200 0.000000 0.000800 0.000200 0.000000 0.000900 0.000200 0.000000 0.001000 0.000200 0.000000 0.001100 0.000200 0.000000 0.001200 0.000200 0.000000 0.001300 0.000200 0.000000 0.001400 0.000200 0.000000 0.001500 0.000200 0.000000 0.001600 0.000200 0.000000 0.001700 0.000200 0.000000 0.001800 0.000200 0.000000 0.001900 0.000200 0.000000 0.002000 0.000200 0.000000 0.002100 0.000200 0.000000 0.002200 0.000200 0.000000 0.002300 0.000200 0.000000 0.002400 0.000200 0.000000 0.002500 0.000200 0.000000 0.002600 0.000200 0.000000 0.002700 0.000200 0.000000 0.002800 0.000200 0.000000 0.002900 0.000200 0.000000 0.003000 0.000200 0.000000 
0.000000 0.000225 0.000000 0.000100 0.000225 0.000000 0.000200 0.000225 0.000000 0.000300 0.000225 0.000000 0.000400 0.000225 0.000000 0.000500 0.000225 0.000000 0.000600 0.000225 0.000000 0.000700 0.000225 0.000000 0.000800 0.000225 0.000000 0.000900 0.000225 0.000000 0.001000 0.000225 0.000000 0.001100 0.000225 0.000000 0.001200 0.000225 0.000000 0.001300 0.000225 0.000000 0.001400 0.000225 0.000000 0.001500 0.000225 0.000000 0.001600 0.000225 0.000000 0.001700 0.000225 0.000000 0.001800 0.000225 0.000000 0.001900 0.000225 0.000000 0.002000 0.000225 0.000000 0.002100 0.000225 0.000000 0.002200 0.000225 0.000000 0.002300 0.000225 0.000000 0.002400 0.000225 0.000000 0.002500 0.000225 0.000000 0.002600 0.000225 0.000000 0.002700 0.000225 0.000000 0.002800 0.000225 0.000000 0.002900 0.000225 0.000000 0.003000 0.000225 0.000000 
0.000000 0.000250 0.000000 0.000100 0.000250 0.000000 0.000200 0.000250 0.000000 0.000300 0.000250 0.000000 0.000400 0.000250 0.000000 0.000500 0.000250 0.000000 0.000600 0.000250 0.000000 0.000700 0.000250 0.000000 0.000800 0.000250 0.000000 0.000900 0.000250 0.000000 0.001000 0.000250 0.000000 0.001100 0.000250 0.000000 0.001200 0.000250 0.000000 0.001300 0.000250 0.000000 0.001400 0.000250 0.000000 0.001500 0.000250 0.000000 0.001600 0.000250 0.000000 0.001700 0.000250 0.000000 0.001800 0.000250 0.000000 0.001900 0.000250 0.000000 0.002000 0.000250 0.000000 0.002100 0.000250 0.000000 0.002200 0.000250 0.000000 0.002300 0.000250 0.000000 0.002400 0.000250 0.000000 0.002500 0.000250 0.000000 0.002600 0.000250 0.000000 0.002700 0.000250 0.000000 0.002800 0.000250 0.000000 0.002900 0.000250 0.000000 0.003000 0.000250 0.000000 
</Points>
<CellData Scalars="Temperature, U, V">
<DataArray type="Float32" Name="Temp, K"/>
41.203476 42.742573 42.873833 42.881741 42.882305 42.882320 42.882320 42.882320 42.882320 42.882320 42.882320 42.882320 42.882320 42.882320 42.882320 42.882320 42.882320 42.882320 42.882320 42.882320 42.882320 42.882320 42.882320 42.882320 42.882320 42.882320 42.882320 42.882320 42.882320 42.882320 
34.181496 36.079163 36.245655 36.260124 36.260742 36.260784 36.260784 36.260784 36.260784 36.260784 36.260784 36.260784 36.260784 36.260784 36.260784 36.260784 36.260784 36.260784 36.260784 36.260784 36.260784 36.260784 36.260784 36.260784 36.260784 36.260784 36.260784 36.260784 36.260784 36.260784 
29.209249 30.695187 30.872639 30.883621 30.884462 30.884481 30.884483 30.884483 30.884483 30.884483 30.884483 30.884483 30.884483 30.884483 30.884483 30.884483 30.884483 30.884483 30.884483 30.884483 30.884485 30.884483 30.884483 30.884485 30.884485 30.884485 30.884483 30.884485 30.884483 30.884483 
25.320606 26.444456 26.553524 26.564259 26.564650 26.564674 26.564676 26.564676 26.564674 26.564676 26.564676 26.564676 26.564674 26.564676 26.564674 26.564676 26.564674 26.564674 26.564676 26.564674 26.564674 26.564674 26.564674 26.564674 26.564676 26.564674 26.564674 26.564674 26.564674 26.564674 
23.086838 23.676502 23.759491 23.763906 23.764265 23.764271 23.764271 23.764271 23.764271 23.764271 23.764271 23.764271 23.764271 23.764271 23.764271 23.764271 23.764271 23.764271 23.764271 23.764271 23.764271 23.764271 23.764271 23.764271 23.764271 23.764271 23.764271 23.764271 23.764271 23.764271 
21.434845 21.798729 21.829838 21.833143 21.833218 21.833221 21.833221 21.833221 21.833221 21.833221 21.833221 21.833221 21.833221 21.833221 21.833221 21.833221 21.833221 21.833221 21.833221 21.833221 21.833223 21.833221 21.833221 21.833223 21.833221 21.833223 21.833221 21.833223 21.833221 21.833221 
20.727476 20.854256 20.873667 20.874304 20.874359 20.874359 20.874359 20.874359 20.874359 20.874359 20.874359 20.874359 20.874359 20.874359 20.874359 20.874359 20.874359 20.874359 20.874359 20.874359 20.874359 20.874359 20.874359 20.874359 20.874359 20.874359 20.874359 20.874359 20.874359 20.874359 
20.242830 20.309553 20.313133 20.313530 20.313530 20.313530 20.313530 20.313530 20.313530 20.313530 20.313530 20.313530 20.313530 20.313530 20.313530 20.313530 20.313530 20.313530 20.313530 20.313530 20.313530 20.313530 20.313530 20.313530 20.313530 20.313530 20.313530 20.313530 20.313530 20.313530 
20.105318 20.117283 20.119188 20.119188 20.119188 20.119188 20.119188 20.119188 20.119188 20.119188 20.119188 20.119188 20.119188 20.119188 20.119188 20.119188 20.119188 20.119188 20.119188 20.119188 20.119188 20.119188 20.119188 20.119188 20.119188 20.119188 20.119188 20.119188 20.119188 20.119188 
20.026123 20.031542 20.031542 20.031542 20.031542 20.031542 20.031542 20.031542 20.031542 20.031542 20.031542 20.031542 20.031542 20.031542 20.031542 20.031542 20.031542 20.031542 20.031542 20.031542 20.031542 20.031542 20.031542 20.031542 20.031542 20.031542 20.031542 20.031542 20.031542 20.031542 
<DataArray type="Float32" Name="Vitesse u, m/s"/>
0.050000 0.050000 0.050000 0.050000 0.050000 0.050000 0.050000 0.050000 0.050000 0.050000 0.050000 0.050000 0.050000 0.050000 0.050000 0.050000 0.050000 0.050000 0.050000 0.050000 0.050000 0.050000 0.050000 0.050000 0.050000 0.050000 0.050000 0.050000 0.050000 0.050000 
0.050000 0.050000 0.050000 0.050000 0.050000 0.050000 0.050000 0.050000 0.050000 0.050000 0.050000 0.050000 0.050000 0.050000 0.050000 0.050000 0.050000 0.050000 0.050000 0.050000 0.050000 0.050000 0.050000 0.050000 0.050000 0.050000 0.050000 0.050000 0.050000 0.050000 
0.050000 0.050000 0.050000 0.050000 0.050000 0.050000 0.050000 0.050000 0.050000 0.050000 0.050000 0.050000 0.050000 0.050000 0.050000 0.050000 0.050000 0.050000 0.050000 0.050000 0.050000 0.050000 0.050000 0.050000 0.050000 0.050000 0.050000 0.050000 0.050000 0.050000 
0.050000 0.050000 0.050000 0.050000 0.050000 0.050000 0.050000 0.050000 0.050000 0.050000 0.050000 0.050000 0.050000 0.050000 0.050000 0.050000 0.050000 0.050000 0.050000 0.050000 0.050000 0.050000 0.050000 0.050000 0.050000 0.050000 0.050000 0.050000 0.050000 0.050000 
0.050000 0.050000 0.050000 0.050000 0.050000 0.050000 0.050000 0.050000 0.050000 0.050000 0.050000 0.050000 0.050000 0.050000 0.050000 0.050000 0.050000 0.050000 0.050000 0.050000 0.050000 0.050000 0.050000 0.050000 0.050000 0.050000 0.050000 0.050000 0.050000 0.050000 
0.050000 0.050000 0.050000 0.050000 0.050000 0.050000 0.050000 0.050000 0.050000 0.050000 0.050000 0.050000 0.050000 0.050000 0.050000 0.050000 0.050000 0.050000 0.050000 0.050000 0.050000 0.050000 0.050000 0.050000 0.050000 0.050000 0.050000 0.050000 0.050000 0.050000 
0.050000 0.050000 0.050000 0.050000 0.050000 0.050000 0.050000 0.050000 0.050000 0.050000 0.050000 0.050000 0.050000 0.050000 0.050000 0.050000 0.050000 0.050000 0.050000 0.050000 0.050000 0.050000 0.050000 0.050000 0.050000 0.050000 0.050000 0.050000 0.050000 0.050000 
0.050000 0.050000 0.050000 0.050000 0.050000 0.050000 0.050000 0.050000 0.050000 0.050000 0.050000 0.050000 0.050000 0.050000 0.050000 0.050000 0.050000 0.050000 0.050000 0.050000 0.050000 0.050000 0.050000 0.050000 0.050000 0.050000 0.050000 0.050000 0.050000 0.050000 
0.050000 0.050000 0.050000 0.050000 0.050000 0.050000 0.050000 0.050000 0.050000 0.050000 0.050000 0.050000 0.050000 0.050000 0.050000 0.050000 0.050000 0.050000 0.050000 0.050000 0.050000 0.050000 0.050000 0.050000 0.050000 0.050000 0.050000 0.050000 0.050000 0.050000 
0.050000 0.050000 0.050000 0.050000 0.050000 0.050000 0.050000 0.050000 0.050000 0.050000 0.050000 0.050000 0.050000 0.050000 0.050000 0.050000 0.050000 0.050000 0.050000 0.050000 0.050000 0.050000 0.050000 0.050000 0.050000 0.050000 0.050000 0.050000 0.050000 0.050000 
<DataArray type="Float32" Name="Vitesse v, m/s"/>
0.000000 0.000000 0.000000 0.000000 0.000000 0.000000 0.000000 0.000000 0.000000 0.000000 0.000000 0.000000 0.000000 0.000000 0.000000 0.000000 0.000000 0.000000 0.000000 0.000000 0.000000 0.000000 0.000000 0.000000 0.000000 0.000000 0.000000 0.000000 0.000000 0.000000 
0.000000 0.000000 0.000000 0.000000 0.000000 0.000000 0.000000 0.000000 0.000000 0.000000 0.000000 0.000000 0.000000 0.000000 0.000000 0.000000 0.000000 0.000000 0.000000 0.000000 0.000000 0.000000 0.000000 0.000000 0.000000 0.000000 0.000000 0.000000 0.000000 0.000000 
0.000000 0.000000 0.000000 0.000000 0.000000 0.000000 0.000000 0.000000 0.000000 0.000000 0.000000 0.000000 0.000000 0.000000 0.000000 0.000000 0.000000 0.000000 0.000000 0.000000 0.000000 0.000000 0.000000 0.000000 0.000000 0.000000 0.000000 0.000000 0.000000 0.000000 
0.000000 0.000000 0.000000 0.000000 0.000000 0.000000 0.000000 0.000000 0.000000 0.000000 0.000000 0.000000 0.000000 0.000000 0.000000 0.000000 0.000000 0.000000 0.000000 0.000000 0.000000 0.000000 0.000000 0.000000 0.000000 0.000000 0.000000 0.000000 0.000000 0.000000 
0.000000 0.000000 0.000000 0.000000 0.000000 0.000000 0.000000 0.000000 0.000000 0.000000 0.000000 0.000000 0.000000 0.000000 0.000000 0.000000 0.000000 0.000000 0.000000 0.000000 0.000000 0.000000 0.000000 0.000000 0.000000 0.000000 0.000000 0.000000 0.000000 0.000000 
0.000000 0.000000 0.000000 0.000000 0.000000 0.000000 0.000000 0.000000 0.000000 0.000000 0.000000 0.000000 0.000000 0.000000 0.000000 0.000000 0.000000 0.000000 0.000000 0.000000 0.000000 0.000000 0.000000 0.000000 0.000000 0.000000 0.000000 0.000000 0.000000 0.000000 
0.000000 0.000000 0.000000 0.000000 0.000000 0.000000 0.000000 0.000000 0.000000 0.000000 0.000000 0.000000 0.000000 0.000000 0.000000 0.000000 0.000000 0.000000 0.000000 0.000000 0.000000 0.000000 0.000000 0.000000 0.000000 0.000000 0.000000 0.000000 0.000000 0.000000 
0.000000 0.000000 0.000000 0.000000 0.000000 0.000000 0.000000 0.000000 0.000000 0.000000 0.000000 0.000000 0.000000 0.000000 0.000000 0.000000 0.000000 0.000000 0.000000 0.000000 0.000000 0.000000 0.000000 0.000000 0.000000 0.000000 0.000000 0.000000 0.000000 0.000000 
0.000000 0.000000 0.000000 0.000000 0.000000 0.000000 0.000000 0.000000 0.000000 0.000000 0.000000 0.000000 0.000000 0.000000 0.000000 0.000000 0.000000 0.000000 0.000000 0.000000 0.000000 0.000000 0.000000 0.000000 0.000000 0.000000 0.000000 0.000000 0.000000 0.000000 
0.000000 0.000000 0.000000 0.000000 0.000000 0.000000 0.000000 0.000000 0.000000 0.000000 0.000000 0.000000 0.000000 0.000000 0.000000 0.000000 0.000000 0.000000 0.000000 0.000000 0.000000 0.000000 0.000000 0.000000 0.000000 0.000000 0.000000 0.000000 0.000000 0.000000 
</CellData>
</Piece>
</StructuredGrid>
</VTKFile>
