<?xml version="1.0"?>
<VTKFile type="StructuredGrid">
<StructuredGrid WholeExtent="0 4 0 4 0 0">
<Piece Extent="0 4 0 4 0 0">
<Points>
<DataArray type="Float32" NumberOfComponents="3"/>
0.000000 0.000000 0.000000 0.000750 0.000000 0.000000 0.001500 0.000000 0.000000 0.002250 0.000000 0.000000 0.003000 0.000000 0.000000 
0.000000 0.000063 0.000000 0.000750 0.000063 0.000000 0.001500 0.000063 0.000000 0.002250 0.000063 0.000000 0.003000 0.000063 0.000000 
0.000000 0.000125 0.000000 0.000750 0.000125 0.000000 0.001500 0.000125 0.000000 0.002250 0.000125 0.000000 0.003000 0.000125 0.000000 
0.000000 0.000188 0.000000 0.000750 0.000188 0.000000 0.001500 0.000188 0.000000 0.002250 0.000188 0.000000 0.003000 0.000188 0.000000 
0.000000 0.000250 0.000000 0.000750 0.000250 0.000000 0.001500 0.000250 0.000000 0.002250 0.000250 0.000000 0.003000 0.000250 0.000000 
</Points>
<CellData Scalars="Temperature, U, V">
<DataArray type="Float32" Name="Temp, K"/>
43.293648 43.611217 43.614014 43.568878 
35.474430 35.597637 35.602581 35.760033 
31.025961 31.175516 31.182650 31.330286 
28.978806 29.365984 29.375906 29.329868 
<DataArray type="Float32" Name="Vitesse u, m/s"/>
0.050000 0.050000 0.050000 0.050000 
0.050000 0.050000 0.050000 0.050000 
0.050000 0.050000 0.050000 0.050000 
0.050000 0.050000 0.050000 0.050000 
<DataArray type="Float32" Name="Vitesse v, m/s"/>
0.000000 0.000000 0.000000 0.000000 
0.000000 0.000000 0.000000 0.000000 
0.000000 0.000000 0.000000 0.000000 
0.000000 0.000000 0.000000 0.000000 
</CellData>
</Piece>
</StructuredGrid>
</VTKFile>
